file 72300384 1767971591                                        
version 3
run Parallelized-0-20260109-16:12:58-17969
attr configname Parallelized
attr datetime 20260109-16:12:58
attr datetimef 20260109-161258
attr experiment Parallelized
attr inifile omnetpp.ini
attr iterationvars ""
attr iterationvarsd ""
attr iterationvarsf ""
attr measurement ""
attr network Factory
attr processid 17969
attr repetition 0
attr replication #0
attr resultdir results
attr runnumber 0
attr seedset 134
config **.mode "\"parallelized\""
config cpu-time-limit 200s
config seed-set 134
config **.N 4
config **.p "\"0.78 0.9 0.98 0.1\""
config network Factory

vector 0 Factory.assemblyLine.robot[0] busyPeriod:vector ETV
attr recordingmode vector
attr source busyPeriod
attr unit s
vector 1 Factory.assemblyLine.robot[1] busyPeriod:vector ETV
attr recordingmode vector
attr source busyPeriod
attr unit s
vector 2 Factory.assemblyLine.robot[2] busyPeriod:vector ETV
attr recordingmode vector
attr source busyPeriod
attr unit s
vector 3 Factory.assemblyLine.robot[3] busyPeriod:vector ETV
attr recordingmode vector
attr source busyPeriod
attr unit s
vector 4 Factory.receiver itemResponseTime:vector ETV
attr recordingmode vector
attr source itemResponseTime
attr unit s
vector 5 Factory.receiver itemWaitingTime:vector ETV
attr recordingmode vector
attr source itemWaitingTime
attr unit s
vector 6 Factory.receiver defectiveLifetime:vector ETV
attr recordingmode vector
attr source defectiveLifetime
attr unit s
0	1430 641235 17 165071 0.811403625412 7833.234045797479 15657 4.479662e-06 0.999997723615 7833.2340457975 5218.8210201468
1	642665 645646 5 165067 0.214099296834 7833.142260225469 15760 4.7792215e-05 0.999986040406 7833.1422602255 5191.6021354182
2	1288311 645527 7 165057 0.447764245793 7832.727397421635 15760 0.000114106806 0.999878757633 7832.7273974216 5207.2682722769
3	1933838 640030 11 165063 0.623019544175 7832.979201408318 15619 0.000117057003 0.999947480625 7832.9792014083 5220.5747527996
4	2573868 56068 110 164882 4.879317866638 7823.735921782701 1368 0.199176232097 3.605388349621 2746.0102317258 5955.7286494398
5	2629936 38441 110 164882 4.879317866638 7823.735921782701 1368 0 0 0 0
6	2668377 752572 8 165072 0.447764245793 7833.234045797479 18371 4.7792215e-05 3.723305308493 28586.072673127 56906.683156272
6	3420949 1396684 165088 458584 7834.221122862053 21804.607456836906 32768 0.000431300607 3.788453569403 50985.810323264 101463.42758484
0	4817633 1397302 165083 508841 7834.173419690909 24188.717742773619 32768 3.2943673e-05 0.999977502506 16355.483696976 10902.565625947
3	6214935 1397276 165079 509883 7833.905666784598 24236.220000562657 32768 1.7080689e-05 0.999941444723 16403.240799154 10943.476361043
2	7612211 1397501 165075 510013 7833.481711858212 24241.742704672781 32768 6.1780214e-05 0.999910104321 16409.015307251 10923.227554071
1	9009712 1397425 165077 510811 7833.559437480502 24279.713992679587 32768 1.8969178e-05 0.999903490767 16446.571732454 10974.992203658
6	10407137 1401633 458594 753006 21804.937817629533 35803.985859804265 32768 0.000142200384 3.865214482415 51057.287447152 101758.80183958
0	11808770 1401880 508853 853605 24189.54279039489 40591.747559714068 32768 7.096841e-05 0.999955640174 16403.02981694 10921.763682443
2	13210650 1401758 510029 853941 24242.61894056438 40608.67466965643 32768 1.218636e-06 0.999973470578 16366.931964984 10895.00230144
1	14612408 1401735 510819 854341 24279.886799983543 40629.43933466487 32768 4.1079475e-05 0.999994432554 16349.725341985 10909.483569547
3	16014143 1401690 509893 856011 24236.537143018496 40708.634453072456 32768 3.0800002e-05 0.99996689707 16472.41445251 11009.25053299
6	17415833 1406894 753012 1046888 35804.252444613688 49745.415769026017 32768 2.0635314e-05 3.766482386272 50957.697157121 101411.75437315
1	18822727 1420373 854349 1196791 40630.351892858654 56870.861018688035 32768 2.0635314e-05 0.999977944652 16241.421684023 10800.525747878
0	20243100 1420661 853617 1199671 40592.621928794246 57010.875700664366 32768 9.4345072e-05 0.999994962011 16419.12814095 10944.478564058
2	21663761 1420658 853947 1200175 40608.938559860217 57034.108261130477 32768 3.522029e-06 0.999988328433 16425.433591474 10961.543605896
3	23084419 1420963 856029 1200595 40709.204510091116 57052.990135964035 32768 3.2396754e-05 0.999915429391 16344.355682892 10872.232866684
6	24505382 1434559 1046892 1340642 49745.425381008548 63695.604305715836 32768 2.6979484e-05 3.852308562731 50813.45087448 101266.89084102
1	25939941 1434593 1196795 1542615 56871.218865142752 73309.493328887774 32768 1.6495818e-05 0.999963003909 16438.6323102 10981.113402116
2	27374534 1434480 1200187 1543397 57034.485629903345 73346.946630625019 32768 2.9533869e-05 0.999972977675 16312.838369495 10845.250034952
0	28809014 1434518 1199673 1545063 57010.944351717955 73429.278997864742 32768 2.767425e-06 0.999976998894 16418.4032972 10956.163198725
3	30243532 1434400 1200601 1546017 57053.420243250235 73474.224897783379 32768 2.6979484e-05 0.999962610658 16421.234761819 10981.243697805
6	31677932 1434404 1340648 1633940 63695.704730579416 77669.874328201659 32768 4.9279537e-05 3.770158297615 51144.479762191 102371.20759205
1	33112336 1434437 1542625 1887031 73309.795803897353 89706.09388058215 32768 2.0826003e-05 0.999964646762 16396.600551694 10935.903508208
0	34546773 1434503 1545065 1889419 73429.436653171834 89818.525118582139 32768 0.000137199881 0.999971467769 16389.246120717 10916.101446282
2	35981276 1434452 1543405 1890051 73347.326157345401 89849.645518584443 32768 2.0116102e-05 0.999964891933 16502.698887959 11021.658371727
3	37415728 1434412 1546019 1890277 73474.229975667679 89860.908866488108 32768 8.8747125e-05 0.999979715561 16386.683968705 10914.115220834
6	38850140 1434336 1633948 1926212 77670.481104536244 91560.968887097437 32768 0.000197949819 3.852920876816 50839.697866688 101050.93594431
6	40284476 1447548 1926216 2220800 91561.063173870471 105561.355171101568 32768 6.5840781e-05 3.833163678646 50989.643931549 101683.0883674
1	41732024 1446747 1887041 2230379 89706.35134638568 106014.675721419012 32768 2.7618371e-05 0.999995444203 16308.581840837 10871.36970758
0	43178771 1446767 1889427 2233369 89819.276960191971 106157.780728436863 32768 1.2938399e-05 0.999989451841 16339.255609855 10868.995798635
3	44625538 1446857 1890279 2235755 89861.002457669902 106274.305649724955 32768 3.9922772e-05 0.999965545489 16413.396783237 10937.983039374
2	46072395 1447063 1890065 2236255 89850.012544015921 106300.831917947933 32768 8.3989e-06 0.99998556613 16451.186399363 10984.375482647
6	47519458 1467195 2220808 2514838 105561.791096058305 119534.235938466673 32768 0.001113138176 3.950300359866 50867.435318792 101134.9988222
1	48986653 1467238 2230397 2575667 106015.422087845826 122418.462308323916 32768 6.5891e-08 0.999982477399 16403.786586905 10944.546831705
0	50453891 1467397 2233373 2577347 106157.86843123552 122496.476607237521 32768 8.232426e-06 0.999969999772 16338.695878801 10863.979332474
2	51921288 1467270 2236269 2580425 106301.713159096736 122641.006295675779 32768 2.4430454e-05 0.999988989672 16340.174377728 10876.274012428
3	53388558 1467239 2235777 2582433 106275.142493065147 122734.148278103935 32768 4.356401e-05 0.999988547759 16459.842628379 11003.902614226
6	54855797 1467359 2514852 2807636 119534.775244221462 133405.681435409967 32768 0.000568364965 3.774280036334 50696.26922869 100662.07979847
1	56323156 1467311 2575673 2921393 122418.733672508944 138798.004409674336 32768 6.1343191e-05 0.999968708726 16379.54210135 10894.872457224
0	57790467 1467219 2577361 2922543 122497.373630549104 138849.852299089795 32768 9.161886e-06 0.999997918261 16353.375691852 10895.850646801
2	59257686 1467318 2580439 2925379 122641.497181877628 138985.022859287398 32768 8.853851e-06 0.999993434176 16344.016563612 10905.184730497
3	60725004 1467248 2582437 2925949 122734.657182260443 139014.15910916666 32768 2.833083e-06 0.999976650346 16280.010831063 10835.276154606
6	62192252 1467139 2807646 3101758 133406.156045321176 147367.511686330663 32768 0.000207612757 3.872842457815 50843.642654348 100987.12826539
1	63659391 1467114 2921403 3266213 138798.550531363361 155176.609709217218 32768 7.522525e-06 0.999992628116 16378.605299543 10923.395661777
0	65126505 1467098 2922545 3267201 138849.941404613452 155221.56660311421 32768 3.0423515e-05 0.99989812565 16371.714304024 10904.778071002
0	66593603 7342 3267213 3268857 155222.326898603082 155300.855786207678 164 0.001360742375 0.996205472387 79.289183093468 50.948561734957
1	66600945 11382 3266223 3268863 155176.858574772491 155301.425309899971 254 0.00190843828 0.991975914221 124.81560068275 83.177092455061
2	66612327 1463570 2925401 3268861 138986.000647595102 155301.132601240492 32687 1.5614787e-05 0.999954938423 16316.109741953 10853.675713807
3	68075897 1454513 2925959 3268859 139014.679130977322 155301.075033277805 32486 3.24077e-06 0.999974327162 16286.915924111 10866.584446731
4	69530410 1132874 165230 3268754 7840.560064187486 155296.612761789544 25820 0.168579389574 3.863539331142 51643.332206322 111918.8792938
5	70663284 800015 165230 3268754 7840.560064187486 155296.612761789544 25820 0 0 0 0
6	71463299 836949 3101768 3268864 147367.726311110672 155301.425309899971 18693 0.000217252877 3.783936249791 29031.191041403 57771.925929587
0	72300248 45 3268864 3268864 155301.425309899971 155301.425309899971 1 0.569523692293 0.569523692293 0.569523692293 0.32435723608305
2	72300293 45 3268864 3268864 155301.425309899971 155301.425309899971 1 0.292708659479 0.292708659479 0.292708659479 0.085678359333993
3	72300338 45 3268864 3268864 155301.425309899971 155301.425309899971 1 0.350276622166 0.350276622166 0.350276622166 0.12269371203602

