version 3
run Parallelized-0-20251210-20:43:27-21914
attr configname Parallelized
attr datetime 20251210-20:43:27
attr datetimef 20251210-204327
attr experiment Parallelized
attr inifile omnetpp.ini
attr iterationvars ""
attr iterationvarsd ""
attr iterationvarsf ""
attr measurement ""
attr network ParallelizedFactory
attr processid 21914
attr repetition 0
attr replication #0
attr resultdir results
attr runnumber 0
attr seedset 125
config network ParallelizedFactory
config cpu-time-limit 200s
config seed-set 125
config **.N 4
config **.p "\"0.78 0.9 0.98 0.1\""

vector 0 ParallelizedFactory.assemblyLine.robot[0] busyPeriod:vector ETV
attr recordingmode vector
attr source busyPeriod
attr unit s
vector 1 ParallelizedFactory.assemblyLine.robot[1] busyPeriod:vector ETV
attr recordingmode vector
attr source busyPeriod
attr unit s
vector 2 ParallelizedFactory.assemblyLine.robot[2] busyPeriod:vector ETV
attr recordingmode vector
attr source busyPeriod
attr unit s
vector 3 ParallelizedFactory.assemblyLine.robot[3] busyPeriod:vector ETV
attr recordingmode vector
attr source busyPeriod
attr unit s
vector 4 ParallelizedFactory.receiver itemResponseTime:vector ETV
attr recordingmode vector
attr source itemResponseTime
attr unit s
vector 5 ParallelizedFactory.receiver itemWaitingTime:vector ETV
attr recordingmode vector
attr source itemWaitingTime
attr unit s
vector 6 ParallelizedFactory.receiver defectiveLifetime:vector ETV
attr recordingmode vector
attr source defectiveLifetime
attr unit s
0	11	0.506726010935	0.506726010935
0	15	0.529885469004	0.023159458069
0	29	1.149397856788	0.619512387784
0	45	1.687659162794	0.538261306006
0	59	2.208790457573	0.521131294779
0	77	3.128872699801	0.920082242228
0	87	3.58299591881	0.454123219009
0	89	3.692167635074	0.109171716264
0	103	4.418444912879	0.726277277805
0	107	4.42129147495	0.002846562071
0	109	4.571481553371	0.150190078421
0	131	5.116128595545	0.544647042174
0	137	5.424014909192	0.307886313647
0	151	6.109250426524	0.685235517332
0	159	6.340722200692	0.231471774168
0	169	6.847515047759	0.506792847067
0	185	7.546544444047	0.699029396288
0	193	8.27538837632	0.728843932273
0	213	9.194300640838	0.918912264518
0	219	9.386547166619	0.192246525781
0	231	9.982557028995	0.596009862376
0	245	10.818552161564	0.835995132569
0	257	11.407777273326	0.589225111762
0	275	12.0215091377	0.613731864374
0	281	12.737009960456	0.715500822756
0	297	13.543303351846	0.80629339139
0	299	13.608820487043	0.065517135197
0	305	14.176229949106	0.567409462063
0	327	15.097565277709	0.921335328603
0	331	15.543241544856	0.445676267147
0	347	16.354014563604	0.810773018748
0	361	16.987657033835	0.633642470231
0	363	17.405802352351	0.418145318516
0	371	18.06587985018	0.660077497829
0	385	18.707269407806	0.641389557626
0	395	19.00168920052	0.294419792714
0	403	19.389437984207	0.387748783687
0	409	19.76852649613	0.379088511923
0	417	19.88888051314	0.12035401701
0	421	20.114876675417	0.225996162277
0	425	20.585029730571	0.470153055154
0	447	21.232238841241	0.64720911067
0	451	21.276352857703	0.044114016462
0	463	21.753043619215	0.476690761512
0	477	22.355935908386	0.602892289171
0	481	22.605624021261	0.249688112875
0	497	22.777868091359	0.172244070098
0	499	22.816342090952	0.038473999593
0	509	23.440191021419	0.623848930467
0	515	23.730504356322	0.290313334903
0	531	24.480261167742	0.74975681142
0	535	24.874818350419	0.394557182677
0	555	25.868308434261	0.993490083842
0	565	26.675659276776	0.807350842515
0	583	27.167798048116	0.49213877134
0	599	27.891238589303	0.723440541187
0	601	28.02562646195	0.134387872647
0	615	28.821702157377	0.796075695427
0	623	29.352048459925	0.530346302548
0	627	29.571961697886	0.219913237961
0	645	30.403009891972	0.831048194086
0	665	30.897089201255	0.494079309283
0	671	31.262473291947	0.365384090692
0	679	31.890115985876	0.627642693929
0	701	32.676770340648	0.786654354772
0	709	33.133245693516	0.456475352868
0	713	33.334732912943	0.201487219427
0	723	33.966365689408	0.631632776465
0	737	34.760023015315	0.793657325907
0	739	34.76593089406	0.005907878745
0	741	34.870941924626	0.105011030566
0	745	34.936458925946	0.06551700132
0	757	35.397917787774	0.461458861828
0	767	35.660415405404	0.26249761763
0	781	36.596528205784	0.93611280038
0	783	36.850430580318	0.253902374534
0	797	37.518265543735	0.667834963417
0	813	38.454222767145	0.93595722341
0	821	38.548409709471	0.094186942326
0	823	38.896045695056	0.347635985585
0	839	39.870777012312	0.974731317256
0	855	40.559853699521	0.689076687209
0	865	41.20058590546	0.640732205939
0	871	41.231615536611	0.031029631151
0	877	41.41272359737	0.181108060759
0	889	41.926579413235	0.513855815865
0	895	42.423683697356	0.497104284121
0	915	43.333912311353	0.910228613997
0	935	44.248330481814	0.914418170461
0	947	44.990039878988	0.741709397174
0	953	45.45628483989	0.466244960902
0	955	45.506357470757	0.050072630867
0	957	45.509064519775	0.002707049018
0	969	45.735975517656	0.226910997881
0	981	46.180344991616	0.44436947396
0	993	46.856443664755	0.676098673139
0	995	47.067621559833	0.211177895078
0	1013	47.790016429729	0.722394869896
0	1025	48.224325606131	0.434309176402
0	1033	48.833880049872	0.609554443741
0	1045	49.369605874174	0.535725824302
0	1051	49.58282072772	0.213214853546
0	1057	49.89143502712	0.3086142994
0	1073	50.628603202754	0.737168175634
0	1089	51.476312253622	0.847709050868
0	1091	51.865148050476	0.388835796854
0	1103	52.613555938702	0.748407888226
0	1113	53.106354793532	0.49279885483
0	1129	54.042924810665	0.936570017133
0	1133	54.309927421853	0.267002611188
0	1139	54.583326300837	0.273398878984
0	1147	54.749209412139	0.165883111302
0	1149	54.762743279336	0.013533867197
0	1151	54.811803889226	0.04906060989
0	1155	54.90451206872	0.092708179494
0	1159	55.052961824925	0.148449756205
0	1167	55.279431121189	0.226469296264
0	1181	55.938531186895	0.659100065706
0	1197	56.819534296633	0.881003109738
0	1205	56.939130119046	0.119595822413
0	1211	57.157928662373	0.218798543327
0	1227	58.116062172221	0.958133509848
0	1229	58.443797402315	0.327735230094
0	1233	58.517891433787	0.074094031472
0	1235	58.527114150811	0.009222717024
0	1241	58.63564253738	0.108528386569
0	1247	59.112629043635	0.476986506255
0	1255	59.449740699491	0.337111655856
0	1257	59.685536069794	0.235795370303
0	1271	60.18004409992	0.494508030126
0	1279	60.375547897302	0.195503797382
0	1287	60.79201045283	0.416462555528
0	1291	61.062070498242	0.270060045412
0	1295	61.416161224711	0.354090726469
0	1317	62.052588470978	0.636427246267
0	1327	62.76254662103	0.709958150052
0	1329	62.833937111776	0.071390490746
0	1333	63.001985474722	0.168048362946
0	1353	63.949944420717	0.947958945995
0	1375	64.617514995857	0.66757057514
0	1393	65.594138894695	0.976623898838
0	1411	66.35545021342	0.761311318725
0	1429	67.338267385493	0.982817172073
0	1447	68.240129555575	0.901862170082
0	1467	68.887753576505	0.64762402093
0	1479	69.359414198901	0.471660622396
0	1489	69.863092637155	0.503678438254
0	1507	70.633235845016	0.770143207861
0	1513	71.345993853639	0.712758008623
0	1527	71.66302222968	0.317028376041
0	1541	72.371067449915	0.708045220235
0	1547	72.781816544709	0.410749094794
0	1559	73.739765541627	0.957948996918
0	1563	73.85429558251	0.114530040883
0	1567	73.904689609305	0.050394026795
0	1581	74.705731045221	0.801041435916
0	1595	75.693259590072	0.987528544851
0	1611	76.572736509144	0.879476919072
0	1613	76.583351726411	0.010615217267
0	1617	76.943634902127	0.360283175716
0	1633	77.941755681997	0.99812077987
0	1637	78.132520549232	0.190764867235
0	1643	78.299768816447	0.167248267215
0	1647	78.376827331493	0.077058515046
0	1659	78.855475546327	0.478648214834
0	1665	79.02353609656	0.168060550233
0	1679	79.921373043675	0.897836947115
0	1689	80.444729581941	0.523356538266
0	1711	81.384397203568	0.939667621627
0	1719	82.334944336442	0.950547132874
0	1727	82.407637687865	0.072693351423
0	1753	83.405933917965	0.9982962301
0	1765	84.059495681663	0.653561763698
0	1771	84.263720418791	0.204224737128
0	1783	84.893028011544	0.629307592753
0	1789	85.251508188898	0.358480177354
0	1807	85.993433160939	0.741924972041
0	1815	86.21168732969	0.218254168751
0	1835	86.97852942231	0.76684209262
0	1851	87.645561840384	0.667032418074
0	1863	87.781125559936	0.135563719552
0	1875	88.618909032781	0.837783472845
0	1887	89.26705383323	0.648144800449
0	1909	90.188795821041	0.921741987811
0	1923	91.17174483137	0.982949010329
0	1935	91.843394567257	0.671649735887
0	1945	92.020998801802	0.177604234545
0	1963	92.847842772024	0.826843970222
0	1975	93.826436666537	0.978593894513
0	1979	94.201457741436	0.375021074899
0	1983	94.416745297842	0.215287556406
0	1999	95.017489308024	0.600744010182
0	2017	95.8254910612	0.808001753176
0	2023	96.316211489028	0.490720427828
0	2035	97.093832220881	0.777620731853
0	2041	97.414793936069	0.320961715188
0	2049	97.805422637378	0.390628701309
0	2051	97.876887588062	0.071464950684
0	2071	98.844766390276	0.967878802214
0	2073	98.877666619838	0.032900229562
0	2077	99.134592684683	0.256926064845
0	2087	99.36525633186	0.230663647177
0	2099	99.915721985045	0.550465653185
0	2115	100.887450606794	0.971728621749
0	2127	101.67534571723	0.787895110436
0	2147	102.343628962291	0.668283245061
0	2155	102.902923237765	0.559294275474
0	2161	103.219778563594	0.316855325829
0	2171	103.659325064159	0.439546500565
0	2181	104.022485238499	0.36316017434
0	2185	104.068151884944	0.045666646445
0	2203	104.865911901695	0.797760016751
0	2209	104.899899004958	0.033987103263
0	2219	105.497227303916	0.597328298958
0	2231	105.919103963998	0.421876660082
0	2241	106.452038762159	0.532934798161
0	2249	106.815439670113	0.363400907954
0	2253	107.101475916104	0.286036245991
0	2279	107.687758071348	0.586282155244
0	2283	107.821590298321	0.133832226973
0	2297	108.789323569043	0.967733270722
0	2303	109.036008601543	0.2466850325
0	2309	109.244108827087	0.208100225544
0	2313	109.265956434422	0.021847607335
0	2323	109.595302083996	0.329345649574
0	2329	109.949835577049	0.354533493053
0	2337	110.564772033366	0.614936456317
0	2341	111.044867738616	0.48009570525
0	2357	111.98438327224	0.939515533624
0	2369	112.541702424875	0.557319152635
0	2381	113.037461897359	0.495759472484
0	2387	113.580919635948	0.543457738589
0	2399	114.000734771835	0.419815135887
0	2403	114.115509820171	0.114775048336
0	2405	114.149708723184	0.034198903013
0	2419	115.017016988248	0.867308265064
0	2421	115.052091482794	0.035074494546
0	2431	115.393542367499	0.341450884705
0	2439	115.964888329617	0.571345962118
0	2447	116.080414156429	0.115525826812
0	2465	116.839157151291	0.758742994862
0	2473	117.35597549309	0.516818341799
0	2489	118.253437251784	0.897461758694
0	2493	118.645111532649	0.391674280865
0	2507	119.274251153227	0.629139620578
0	2509	119.329992058687	0.05574090546
0	2521	119.919868624304	0.589876565617
0	2537	120.318622331135	0.398753706831
0	2543	120.500396796269	0.181774465134
0	2547	120.843636289006	0.343239492737
0	2559	121.801874008495	0.958237719489
0	2565	122.242117453832	0.440243445337
0	2573	122.544020834379	0.301903380547
0	2591	123.003585411701	0.459564577322
0	2603	123.499815683346	0.496230271645
0	2611	123.904506485676	0.40469080233
0	2613	123.966939279344	0.062432793668
0	2619	124.505164256785	0.538224977441
0	2631	125.497821625322	0.992657368537
0	2643	125.974869937403	0.477048312081
0	2653	126.320451172069	0.345581234666
0	2665	126.914535436547	0.594084264478
0	2673	127.503034347203	0.588498910656
0	2693	128.48412614991	0.981091802707
0	2701	129.036028358154	0.551902208244
0	2717	129.921460085083	0.885431726929
0	2735	130.777657611063	0.85619752598
0	2737	131.057098235237	0.279440624174
0	2739	131.148913684302	0.091815449065
0	2761	132.060996807181	0.912083122879
0	2779	132.626257477562	0.565260670381
0	2785	133.301632005722	0.67537452816
0	2801	133.729270636338	0.427638630616
0	2803	133.740805327428	0.01153469109
0	2807	134.264143858106	0.523338530678
0	2837	135.177304228769	0.913160370663
0	2851	135.960723290687	0.783419061918
0	2865	136.765967233806	0.805243943119
0	2871	137.292843483157	0.526876249351
0	2875	137.30664195656	0.013798473403
0	2889	138.159430366244	0.852788409684
0	2899	139.006756792312	0.847326426068
0	2905	139.284163614271	0.277406821959
0	2921	140.134511950195	0.850348335924
0	2925	140.42408610834	0.289574158145
0	2939	140.957949778533	0.533863670193
0	2955	141.400581006196	0.442631227663
0	2961	141.844731833788	0.444150827592
0	2965	141.948405105856	0.103673272068
0	2977	142.764101936717	0.815696830861
0	2987	143.041065746688	0.276963809971
0	2995	143.413339391819	0.372273645131
0	3009	144.237907653677	0.824568261858
0	3021	145.093501486818	0.855593833141
0	3047	146.067694958069	0.974193471251
0	3051	146.29032035731	0.222625399241
0	3055	146.394439316124	0.104118958814
0	3065	146.742145334373	0.347706018249
0	3073	147.061440425928	0.319295091555
0	3077	147.474983964584	0.413543538656
0	3087	148.065778683175	0.590794718591
0	3101	148.864696446576	0.798917763401
0	3103	149.014738543427	0.150042096851
0	3123	149.911377834391	0.896639290964
0	3129	150.259260996713	0.347883162322
0	3137	150.424314576436	0.165053579723
0	3153	151.045434247472	0.621119671036
0	3181	151.907943114874	0.862508867402
0	3197	152.713106606158	0.805163491284
0	3207	153.541699714961	0.828593108803
0	3213	153.628954905553	0.087255190592
0	3225	153.922003264541	0.293048358988
0	3237	154.524312257536	0.602308992995
0	3241	154.739530406894	0.215218149358
0	3257	155.639535716504	0.90000530961
0	3267	155.732417491499	0.092881774995
0	3271	156.022326913897	0.289909422398
0	3287	156.882667459549	0.860340545652
0	3305	157.529739016901	0.647071557352
0	3311	157.97473504441	0.444996027509
0	3319	158.464393856937	0.489658812527
0	3337	159.448231579505	0.983837722568
0	3341	159.526829802433	0.078598222928
0	3355	160.101244648688	0.574414846255
0	3357	160.340599512451	0.239354863763
0	3373	160.974524980181	0.63392546773
0	3391	161.602725035514	0.628200055333
0	3403	162.021720026856	0.418994991342
0	3413	162.443135433834	0.421415406978
0	3415	162.531052560316	0.087917126482
0	3431	162.9877991227	0.456746562384
0	3435	163.182963627394	0.195164504694
0	3439	163.316335354469	0.133371727075
0	3441	163.358925621494	0.042590267025
0	3455	163.688348027182	0.329422405688
0	3467	164.221859387591	0.533511360409
0	3471	164.506387396253	0.284528008662
0	3493	165.471857203174	0.965469806921
0	3501	165.968063244599	0.496206041425
0	3515	166.881734783531	0.913671538932
0	3521	167.181110624692	0.299375841161
0	3531	168.008874153022	0.82776352833
0	3541	168.677809884308	0.668935731286
0	3555	169.404914031971	0.727104147663
0	3565	169.569027915133	0.164113883162
0	3573	169.922551771162	0.353523856029
0	3583	170.528043549044	0.605491777882
0	3591	171.173774928555	0.645731379511
0	3601	171.785623551348	0.611848622793
0	3619	172.486047160813	0.700423609465
0	3631	172.81819152739	0.332144366577
0	3635	173.35597113357	0.53777960618
0	3645	173.865066535306	0.509095401736
0	3649	173.924785275246	0.05971873994
0	3663	174.192537646974	0.267752371728
0	3665	174.429514043965	0.236976396991
0	3685	175.096994079184	0.667480035219
0	3691	175.363997208653	0.267003129469
0	3713	176.319644792238	0.955647583585
0	3723	176.516517098061	0.196872305823
0	3729	176.963845810387	0.447328712326
0	3731	177.035948438104	0.072102627717
0	3745	177.475593882845	0.439645444741
0	3755	178.286753625841	0.811159742996
0	3767	178.696236646035	0.409483020194
0	3775	179.037237611133	0.341000965098
0	3781	179.229467888362	0.192230277229
0	3789	179.544719565193	0.315251676831
0	3801	180.243150518508	0.698430953315
0	3811	180.868569016922	0.625418498414
0	3821	181.204900280805	0.336331263883
0	3839	181.878059999551	0.673159718746
0	3843	182.234556523384	0.356496523833
0	3857	182.734676482854	0.50011995947
0	3863	183.174527133815	0.439850650961
0	3875	183.673843715573	0.499316581758
0	3889	184.489694199991	0.815850484418
0	3897	185.384404668818	0.894710468827
0	3905	185.683231453412	0.298826784594
0	3909	185.825471975609	0.142240522197
0	3917	186.183884547792	0.358412572183
0	3937	187.154379588786	0.970495040994
0	3949	187.551829752281	0.397450163495
0	3965	188.27068818384	0.718858431559
0	3977	189.141407778488	0.870719594648
0	3983	189.827026619577	0.685618841089
0	3997	190.818840696245	0.991814076668
0	4007	190.93606899609	0.117228299845
0	4035	191.932870074177	0.996801078087
0	4049	192.87386632641	0.940996252233
0	4057	193.24810057576	0.37423424935
0	4065	193.51458388311	0.26648330735
0	4071	193.688549403103	0.173965519993
0	4095	194.64463697537	0.956087572267
0	4115	195.492301231019	0.847664255649
0	4129	196.123812578853	0.631511347834
0	4143	196.723057108234	0.599244529381
0	4147	196.781419584995	0.058362476761
0	4159	197.503124888057	0.721705303062
0	4167	198.263998214856	0.760873326799
0	4185	199.01363822655	0.749640011694
0	4187	199.112769562753	0.099131336203
0	4199	199.494138427546	0.381368864793
0	4203	199.951932472877	0.457794045331
0	4213	200.458508184181	0.506575711304
0	4215	200.665569712642	0.207061528461
0	4227	201.093917326304	0.428347613662
0	4235	201.448870681227	0.354953354923
0	4245	201.741654470797	0.29278378957
0	4253	202.557417970152	0.815763499355
0	4257	202.639571485577	0.082153515425
0	4277	203.543567958522	0.903996472945
0	4291	204.373343624642	0.82977566612
0	4295	205.097850292224	0.724506667582
0	4313	205.985342250905	0.887491958681
0	4323	206.580903443509	0.595561192604
0	4327	206.691053320189	0.11014987668
0	4329	206.815403354355	0.124350034166
0	4331	206.82472279505	0.009319440695
0	4353	207.756611764898	0.931888969848
0	4357	207.769854738611	0.013242973713
0	4365	208.157196927584	0.387342188973
0	4367	208.247016788229	0.089819860645
0	4379	208.882986128565	0.635969340336
0	4393	209.63378488389	0.750798755325
0	4405	210.373511171203	0.739726287313
0	4429	211.30986756948	0.936356398277
0	4439	211.948634680828	0.638767111348
0	4443	212.22304408136	0.274409400532
0	4449	212.703105058756	0.480060977396
0	4465	213.391461835012	0.688356776256
0	4481	214.314131524183	0.922669689171
0	4489	214.643330289751	0.329198765568
0	4491	214.703887481477	0.060557191726
0	4503	215.07152268314	0.367635201663
0	4523	215.860934895	0.78941221186
0	4541	216.618447595278	0.757512700278
0	4559	217.020063121805	0.401615526527
0	4561	217.176492763918	0.156429642113
0	4563	217.472333734857	0.295840970939
0	4573	217.830281892793	0.357948157936
0	4587	218.211730418961	0.381448526168
0	4591	218.512465758251	0.30073533929
0	4597	218.781532714611	0.26906695636
0	4611	219.38104884769	0.599516133079
0	4613	219.436836272945	0.055787425255
0	4627	219.924125084189	0.487288811244
0	4641	220.709886213999	0.78576112981
0	4653	221.465580095073	0.755693881074
0	4671	222.343717942482	0.878137847409
0	4687	223.145284415225	0.801566472743
0	4697	223.595179948027	0.449895532802
0	4701	223.947272987573	0.352093039546
0	4711	224.388500427131	0.441227439558
0	4715	224.754633980573	0.366133553442
0	4725	225.574437816164	0.819803835591
0	4735	225.980352105342	0.405914289178
0	4751	226.367307869719	0.386955764377
0	4757	226.597179345555	0.229871475836
0	4761	226.823520894629	0.226341549074
0	4777	227.768889901229	0.9453690066
0	4789	228.068518569927	0.299628668698
0	4805	229.06841770094	0.999899131013
0	4811	229.139234711184	0.070817010244
0	4825	229.956477150787	0.817242439603
0	4837	230.620159177576	0.663682026789
0	4847	231.16718620644	0.547027028864
0	4855	231.768011384644	0.600825178204
0	4861	232.160327910213	0.392316525569
0	4869	232.53163410211	0.371306191897
0	4887	233.006974430522	0.475340328412
0	4903	233.427185258828	0.420210828306
0	4913	234.40374802053	0.976562761702
0	4923	234.873711219058	0.469963198528
0	4931	235.205845503603	0.332134284545
0	4947	235.948801449268	0.742955945665
0	4955	236.380420661067	0.431619211799
0	4973	237.016155535124	0.635734874057
0	4983	237.787440535381	0.771285000257
0	4997	238.713519826998	0.926079291617
0	5015	239.269723377657	0.556203550659
0	5023	239.908496729332	0.638773351675
0	5041	240.422192889267	0.513696159935
0	5057	241.332324141871	0.910131252604
0	5063	241.607730367921	0.27540622605
0	5081	242.240586751841	0.63285638392
0	5083	242.421156314436	0.180569562595
0	5113	243.37924714503	0.958090830594
0	5125	244.22350592306	0.84425877803
0	5131	244.275739788777	0.052233865717
0	5141	244.677283015336	0.401543226559
0	5149	244.944448288298	0.267165272962
0	5157	245.211647646037	0.267199357739
0	5171	245.994308128023	0.782660481986
0	5181	246.635095988867	0.640787860844
0	5197	247.369068750414	0.733972761547
0	5199	247.615456313594	0.24638756318
0	5213	248.26437935466	0.648923041066
0	5221	248.809307657183	0.544928302523
0	5231	249.236308062916	0.427000405733
0	5247	250.153984232807	0.917676169891
0	5257	250.711760924432	0.557776691625
0	5267	251.201769515175	0.490008590743
0	5275	251.729198698887	0.527429183712
0	5289	252.278286709219	0.549088010332
0	5295	252.287225435722	0.008938726503
0	5301	252.620477993508	0.333252557786
0	5321	253.538724357962	0.918246364454
0	5327	253.978064827157	0.439340469195
0	5339	254.396171647824	0.418106820667
0	5355	254.989610466875	0.593438819051
0	5359	255.288592646366	0.298982179491
0	5377	256.240430136912	0.951837490546
0	5385	256.522426651327	0.281996514415
0	5393	256.973528270844	0.451101619517
0	5409	257.675844394371	0.702316123527
0	5427	258.414974291811	0.73912989744
0	5437	259.161696685946	0.746722394135
0	5445	259.356480157704	0.194783471758
0	5449	259.435157221745	0.078677064041
0	5457	259.703638982031	0.268481760286
0	5463	260.095398115696	0.391759133665
0	5479	261.029760063396	0.9343619477
0	5487	261.572471673138	0.542711609742
0	5499	262.044047682782	0.471576009644
0	5521	263.043905909176	0.999858226394
0	5529	263.684320063799	0.640414154623
0	5539	264.282913739796	0.598593675997
0	5559	265.045304835544	0.762391095748
0	5563	265.063536195786	0.018231360242
0	5569	265.568314459876	0.50477826409
0	5577	266.248940072258	0.680625612382
0	5585	266.452816193693	0.203876121435
0	5589	266.455203945052	0.002387751359
0	5607	267.443628865762	0.98842492071
0	5613	267.63521400979	0.191585144028
0	5619	267.756512518741	0.121298508951
0	5637	268.370615348687	0.614102829946
0	5639	268.450384890429	0.079769541742
0	5659	269.437640073943	0.987255183514
0	5663	269.735039963388	0.297399889445
0	5671	269.883172428935	0.148132465547
0	5681	270.821907443694	0.938735014759
0	5687	271.006447019755	0.184539576061
0	5697	271.523591326318	0.517144306563
0	5699	271.537468633848	0.01387730753
0	5719	272.197014489445	0.659545855597
0	5721	272.266668990255	0.06965450081
0	5731	272.992862855783	0.726193865528
0	5745	273.645483524539	0.652620668756
0	5751	273.84046869562	0.194985171081
0	5765	274.291944216471	0.451475520851
0	5767	274.352757239481	0.06081302301
0	5777	275.242089631734	0.889332392253
0	5781	275.268715240992	0.026625609258
0	5795	276.260569282807	0.991854041815
0	5815	277.128151047276	0.867581764469
0	5825	277.713200968457	0.585049921181
0	5827	277.798540554242	0.085339585785
0	5847	278.578499300638	0.779958746396
0	5855	278.944158561295	0.365659260657
0	5857	278.953420590609	0.009262029314
0	5863	279.397855915827	0.444435325218
0	5873	279.471817896934	0.073961981107
0	5877	279.995596171822	0.523778274888
0	5891	280.700133659876	0.704537488054
0	5905	281.485048887086	0.78491522721
0	5923	282.465214627328	0.980165740242
0	5933	283.327058811904	0.861844184576
0	5943	283.815387060166	0.488328248262
0	5947	284.158308489713	0.342921429547
0	5963	284.563847119919	0.405538630206
0	5979	285.3380445051	0.774197385181
0	5991	286.320086161605	0.982041656505
0	6011	287.242200207197	0.922114045592
0	6015	287.381546785821	0.139346578624
0	6021	287.884199275634	0.502652489813
0	6033	288.527071957708	0.642872682074
0	6035	288.538859358056	0.011787400348
0	6045	289.075065831885	0.536206473829
0	6055	289.254823780617	0.179757948732
0	6065	290.150018300627	0.89519452001
0	6067	290.208310486282	0.058292185655
0	6087	291.056748241651	0.848437755369
0	6091	291.416183004388	0.359434762737
0	6099	291.579459453932	0.163276449544
0	6117	292.411599903599	0.832140449667
0	6123	292.819815143709	0.40821524011
0	6129	293.191685168304	0.371870024595
0	6141	294.057757926172	0.866072757868
0	6151	294.343060784273	0.285302858101
0	6175	295.218168599064	0.875107814791
0	6187	295.773117057279	0.554948458215
0	6199	296.212435293475	0.439318236196
0	6207	296.400642599676	0.188207306201
0	6219	296.988664727889	0.588022128213
0	6229	297.493567508178	0.504902780289
0	6241	298.033240966963	0.539673458785
0	6247	298.239523326977	0.206282360014
0	6251	298.34134523291	0.101821905933
0	6267	299.335704218129	0.994358985219
0	6277	299.917515598236	0.581811380107
0	6287	300.564638783455	0.647123185219
0	6297	301.347451735286	0.782812951831
0	6315	302.01291256584	0.665460830554
0	6331	302.722483901072	0.709571335232
0	6333	302.758072746915	0.035588845843
0	6343	302.838605331487	0.080532584572
0	6349	303.288188746662	0.449583415175
0	6367	304.242168366674	0.953979620012
0	6373	304.25138239865	0.009214031976
0	6379	304.776875261448	0.525492862798
0	6381	304.811939681878	0.03506442043
0	6397	305.336475686401	0.524536004523
0	6401	305.705468090482	0.368992404081
0	6409	305.823727173962	0.11825908348
0	6417	306.572116352383	0.748389178421
0	6425	307.06437602965	0.492259677267
0	6435	307.42416566517	0.35978963552
0	6443	307.733444462994	0.309278797824
0	6447	307.969659020657	0.236214557663
0	6463	308.858042959821	0.888383939164
0	6471	309.34307303815	0.485030078329
0	6477	309.88188000745	0.5388069693
0	6489	310.517322069964	0.635442062514
0	6511	311.492405157069	0.975083087105
0	6523	312.188470274441	0.696065117372
0	6533	312.489671586545	0.301201312104
0	6551	313.201055665498	0.711384078953
0	6561	313.595805636605	0.394749971107
0	6563	313.669884362023	0.074078725418
0	6579	314.146342977414	0.476458615391
0	6595	314.791529960696	0.645186983282
0	6611	315.67053474509	0.879004784394
0	6619	316.445398913695	0.774864168605
0	6629	316.80814094073	0.362742027035
0	6647	317.511371073777	0.703230133047
0	6657	318.100759148363	0.589388074586
0	6671	318.871965180615	0.771206032252
0	6677	319.448740828315	0.5767756477
0	6689	319.812633550724	0.363892722409
0	6699	320.137129922861	0.324496372137
0	6701	320.151542806763	0.014412883902
0	6705	320.552057377294	0.400514570531
0	6717	320.786683141485	0.234625764191
0	6723	321.18503623735	0.398353095865
0	6729	321.436178948496	0.251142711146
0	6743	322.329890229971	0.893711281475
0	6745	322.330357978352	0.000467748381
0	6747	322.38759869174	0.057240713388
0	6751	322.39383060648	0.00623191474
0	6765	322.786129892104	0.392299285624
0	6773	323.643030444625	0.856900552521
0	6781	324.072434780187	0.429404335562
0	6787	324.291082841343	0.218648061156
0	6797	324.48912323662	0.198040395277
0	6803	324.867493090917	0.378369854297
0	6815	325.501966685055	0.634473594138
0	6827	326.076031577073	0.574064892018
0	6837	326.69834752078	0.622315943707
0	6841	326.847156333503	0.148808812723
0	6849	327.333307869265	0.486151535762
0	6875	328.235172919462	0.901865050197
0	6883	328.34903514874	0.113862229278
0	6889	328.687622705706	0.338587556966
0	6905	329.513845444888	0.826222739182
0	6921	330.300289309349	0.786443864461
0	6927	330.781757019458	0.481467710109
0	6945	331.466776036655	0.685019017197
0	6953	331.994336931033	0.527560894378
0	6955	332.049513910895	0.055176979862
0	6979	332.884266589068	0.834752678173
0	6983	332.948780143632	0.064513554564
0	6995	333.63442715071	0.685647007078
0	7001	333.801288858055	0.166861707345
0	7013	334.578967674867	0.777678816812
0	7025	335.095060979481	0.516093304614
0	7031	335.200473024276	0.105412044795
0	7037	335.42211928428	0.221646260004
0	7043	335.938358403974	0.516239119694
0	7049	336.086078048217	0.147719644243
0	7051	336.238003280711	0.151925232494
0	7053	336.274786306777	0.036783026066
0	7057	336.388069108593	0.113282801816
0	7071	336.929880332201	0.541811223608
0	7087	337.881217460147	0.951337127946
0	7095	338.23301103548	0.351793575333
0	7103	338.415353380608	0.182342345128
0	7105	338.547753189922	0.132399809314
0	7127	339.452066670869	0.904313480947
0	7131	339.598293432033	0.146226761164
0	7139	339.950393816222	0.352100384189
0	7143	340.056508655658	0.106114839436
0	7145	340.319185136816	0.262676481158
0	7153	340.654870393685	0.335685256869
0	7171	341.336917873005	0.68204747932
0	7177	341.638499211519	0.301581338514
0	7195	342.218717289855	0.580218078336
0	7197	342.242100131232	0.023382841377
0	7209	343.172276556259	0.930176425027
0	7225	343.799017989077	0.626741432818
0	7233	344.372481744737	0.57346375566
0	7245	345.299796752167	0.92731500743
0	7255	345.514961257811	0.215164505644
0	7267	346.304744522089	0.789783264278
0	7281	346.748883562164	0.444139040075
0	7285	347.111484647031	0.362601084867
0	7293	347.272116188194	0.160631541163
0	7309	348.241993051024	0.96987686283
0	7321	349.111322832528	0.869329781504
0	7329	349.706435492031	0.595112659503
0	7341	350.011103206316	0.304667714285
0	7357	350.843736173587	0.832632967271
0	7371	351.699160200546	0.855424026959
0	7377	352.238305809677	0.539145609131
0	7397	352.99446232524	0.756156515563
0	7399	353.037582322957	0.043119997717
0	7417	353.733914056795	0.696331733838
0	7421	353.844676229406	0.110762172611
0	7423	353.916767626537	0.072091397131
0	7429	354.486015625067	0.56924799853
0	7437	354.896164720647	0.41014909558
0	7451	355.76462391671	0.868459196063
0	7453	355.896046451528	0.131422534818
0	7455	356.110041677721	0.213995226193
0	7465	356.273276952796	0.163235275075
0	7469	356.384454176065	0.111177223269
0	7483	357.054547958544	0.670093782479
0	7495	357.618040586591	0.563492628047
0	7501	357.871929493735	0.253888907144
0	7519	358.679617558143	0.807688064408
0	7533	359.623965188398	0.944347630255
0	7543	360.548335560367	0.924370371969
0	7555	361.195915447318	0.647579886951
0	7561	361.5652204135	0.369304966182
0	7573	362.18731378741	0.62209337391
0	7577	362.577470219465	0.390156432055
0	7593	363.524018995468	0.946548776003
0	7601	364.196603253022	0.672584257554
0	7617	365.09696998238	0.900366729358
0	7627	365.351778349144	0.254808366764
0	7637	366.317148428646	0.965370079502
0	7645	366.686215645637	0.369067216991