                                                                
version 3
run Parallelized-0-20260107-12:06:36-13409
attr configname Parallelized
attr datetime 20260107-12:06:36
attr datetimef 20260107-120636
attr experiment Parallelized
attr inifile omnetpp.ini
attr iterationvars ""
attr iterationvarsd ""
attr iterationvarsf ""
attr measurement ""
attr network Factory
attr processid 13409
attr repetition 0
attr replication #0
attr resultdir results
attr runnumber 0
attr seedset 125
config **.mode "\"parallelized\""
config cpu-time-limit 200s
config seed-set 125
config **.N 4
config **.p "\"0.78 0.9 0.98 0.1\""
config network Factory

vector 0 Factory.assemblyLine.robot[0] busyPeriod:vector ETV
attr recordingmode vector
attr source busyPeriod
attr unit s
vector 1 Factory.assemblyLine.robot[1] busyPeriod:vector ETV
attr recordingmode vector
attr source busyPeriod
attr unit s
vector 2 Factory.assemblyLine.robot[2] busyPeriod:vector ETV
attr recordingmode vector
attr source busyPeriod
attr unit s
vector 3 Factory.assemblyLine.robot[3] busyPeriod:vector ETV
attr recordingmode vector
attr source busyPeriod
attr unit s
vector 4 Factory.receiver itemResponseTime:vector ETV
attr recordingmode vector
attr source itemResponseTime
attr unit s
vector 5 Factory.receiver itemWaitingTime:vector ETV
attr recordingmode vector
attr source itemWaitingTime
attr unit s
vector 6 Factory.receiver defectiveLifetime:vector ETV
attr recordingmode vector
attr source defectiveLifetime
attr unit s
6	1430 1363080 12 292450 0.506726010935 13867.482287449539 32768 6.3114103e-05 3.886392959161 50743.099244375 100655.30926644
1	1364510 1368991 25 343659 0.981974161463 16298.420258114831 32768 6.7354878e-05 0.999953667633 16298.420258115 10827.408962864
3	2733501 1368893 7 344821 0.195721586933 16352.369526798726 32768 7.285038e-06 0.999971383251 16352.369526799 10890.444230373
0	4102394 1368896 11 345025 0.506726010935 16361.89673941283 32768 1.0780292e-05 0.9999615876 16361.896739413 10877.150061947
2	5471290 1369323 5 346763 0.057530694176 16444.783667715767 32768 3.0321535e-05 0.999999609776 16444.783667716 10972.01156398
0	6840613 8344 345033 347195 16362.607770408769 16464.478167439608 195 0.006557280198 0.995991308242 102.58142802678 70.79889625033
1	6848957 14770 343661 347189 16298.793850729027 16464.086379152742 345 0.000345434295 0.999960829737 165.66612103791 107.22853567261
2	6863727 2011 346769 347201 16444.989216296736 16464.565065069857 47 0.008424248546 0.989132433897 19.78139735409 11.979169090228
3	6865738 9362 344823 347187 16352.42349764065 16464.04777384911 219 0.006945791189 0.995781893143 111.67824705038 74.282684159279
4	6875100 116754 74 347002 3.019435238093 16454.887406290528 2794 0.247142259032 3.769184647362 5592.0305704998 12133.27961277
5	6991854 80744 74 347002 3.019435238093 16454.887406290528 2794 0 0 0 0
6	7072598 263493 292454 347202 13867.571973591397 16464.565065069857 6160 0.00056695519 3.636113832707 9519.4902978677 18900.923146571
