file 24716588 1767967408                                        
version 3
run Parallelized-0-20260109-15:02:56-12728
attr configname Parallelized
attr datetime 20260109-15:02:56
attr datetimef 20260109-150256
attr experiment Parallelized
attr inifile omnetpp.ini
attr iterationvars ""
attr iterationvarsd ""
attr iterationvarsf ""
attr measurement ""
attr network Factory
attr processid 12728
attr repetition 0
attr replication #0
attr resultdir results
attr runnumber 0
attr seedset 134
config **.mode "\"parallelized\""
config cpu-time-limit 200s
config seed-set 134
config **.N 4
config **.p "\"0.78 0.9 0.98 0.1\""
config network Factory

vector 0 Factory.assemblyLine.robot[0] busyPeriod:vector ETV
attr recordingmode vector
attr source busyPeriod
attr unit s
vector 1 Factory.assemblyLine.robot[1] busyPeriod:vector ETV
attr recordingmode vector
attr source busyPeriod
attr unit s
vector 2 Factory.assemblyLine.robot[2] busyPeriod:vector ETV
attr recordingmode vector
attr source busyPeriod
attr unit s
vector 3 Factory.assemblyLine.robot[3] busyPeriod:vector ETV
attr recordingmode vector
attr source busyPeriod
attr unit s
vector 4 Factory.receiver itemResponseTime:vector ETV
attr recordingmode vector
attr source itemResponseTime
attr unit s
vector 5 Factory.receiver itemWaitingTime:vector ETV
attr recordingmode vector
attr source itemWaitingTime
attr unit s
vector 6 Factory.receiver defectiveLifetime:vector ETV
attr recordingmode vector
attr source defectiveLifetime
attr unit s
6	1430 1363367 8 294852 0.447764245793 13984.858586046441 32768 4.7792215e-05 3.745652008336 50964.045934361 101296.41726561
1	1364797 1368948 5 344247 0.214099296834 16342.170858920006 32768 4.7792215e-05 0.999986040406 16342.17085892 10860.096683872
2	2733745 1368745 7 344571 0.447764245793 16356.455597628451 32768 0.000114106806 0.999910104321 16356.455597628 10877.791717805
3	4102490 1369190 11 344761 0.623019544175 16365.336602764639 32768 0.000117057003 0.999947480625 16365.336602765 10899.163378443
0	5471680 1368780 17 344989 0.811403625412 16375.079666504825 32768 4.479662e-06 0.999997723615 16375.079666505 10912.904171791
6	6840460 1401784 294860 588492 13985.09620651926 27995.46238614694 32768 0.000142200384 3.788453569403 51109.810599587 102004.76324224
2	8242244 1401911 344583 688281 16357.098641484588 32721.18054784395 32768 6.1780214e-05 0.99995622132 16364.724950216 10884.162377495
1	9644155 1401628 344257 689003 16342.23193304838 32755.094786171718 32768 1.8969178e-05 0.999994432554 16412.923927252 10949.751185662
0	11045783 1401799 344999 689189 16375.759783968751 32763.30110448361 32768 6.8664318e-05 0.999955640174 16388.221437979 10914.06538914
3	12447582 1401689 344763 691355 16365.339737869303 32865.40682354332 32768 1.7080689e-05 0.999941444723 16500.070220779 11042.790174821
6	13849271 1401626 588502 882192 27996.052302514852 41937.395188222077 32768 2.0635314e-05 3.865214482415 51019.592048737 101631.96097245
1	15250897 1404805 689013 1031829 32755.625439285217 49035.838228899861 32768 2.0635314e-05 0.999971107813 16280.743442728 10852.190304546
2	16655702 1404953 688283 1033749 32721.491594962107 49122.78604794851 32768 1.218636e-06 0.999973470578 16401.605500105 10947.899973099
0	18060655 1404993 689191 1034363 32763.423276754512 49152.324676811875 32768 7.096841e-05 0.999960984103 16389.023572328 10907.277161887
3	19465648 1405224 691357 1036521 32865.52142785159 49254.7286472146 32768 3.0800002e-05 0.99996689707 16389.321823671 10917.279669252
0	20870872 466839 1034375 1146865 49153.106597757613 54492.76300778206 10662 0.000150926178 0.999994962011 5340.4383309702 3561.9815123575
1	21337711 481685 1031837 1146863 49036.113288487416 54492.758769468273 11005 0.000158336014 0.999977944652 5456.9205405684 3630.0278399518
2	21819396 466379 1033755 1146853 49123.32933443434 54492.318984725233 10655 0.000251910882 0.999769354938 5369.5329367767 3591.3847764043
3	22285775 460817 1036527 1146859 49254.763852228417 54492.530227703743 10526 3.2396754e-05 0.999883703422 5237.8015804891 3483.9867195703
4	22746592 407290 110 1146678 4.879317866638 54484.38053341508 9557 0.199176232097 3.803739716532 19112.919145321 41505.509556786
5	23153882 284096 110 1146678 4.879317866638 54484.38053341508 9557 0 0 0 0
6	23437978 1278480 882202 1146850 41937.980450919267 54492.162805030076 29506 0.000142984558 3.762755919481 45759.631152175 90985.124362302
1	24716458 43 1146865 1146865 54492.76300778206 54492.76300778206 1 0.004238313787 0.004238313787 0.004238313787 1.7963303757074e-05
2	24716501 43 1146865 1146865 54492.76300778206 54492.76300778206 1 0.444023056827 0.444023056827 0.444023056827 0.19715647499399
3	24716544 43 1146865 1146865 54492.76300778206 54492.76300778206 1 0.232780078317 0.232780078317 0.232780078317 0.054186564861269

