version 3
run Pipelined-0-20260107-15:14:49-25970
attr configname Pipelined
attr datetime 20260107-15:14:49
attr datetimef 20260107-151449
attr experiment Pipelined
attr inifile omnetpp.ini
attr iterationvars ""
attr iterationvarsd ""
attr iterationvarsf ""
attr measurement ""
attr network Factory
attr processid 25970
attr repetition 0
attr replication #0
attr resultdir results
attr runnumber 0
attr seedset 125
config **.mode "\"pipelined\""
config cpu-time-limit 200s
config seed-set 125
config **.N 4
config **.p "\"0.78 0.9 0.98 0.1\""
config network Factory

vector 0 Factory.assemblyLine.robot[0] busyPeriod:vector ETV
attr recordingmode vector
attr source busyPeriod
attr unit s
vector 1 Factory.assemblyLine.robot[1] busyPeriod:vector ETV
attr recordingmode vector
attr source busyPeriod
attr unit s
vector 2 Factory.assemblyLine.robot[2] busyPeriod:vector ETV
attr recordingmode vector
attr source busyPeriod
attr unit s
vector 3 Factory.assemblyLine.robot[3] busyPeriod:vector ETV
attr recordingmode vector
attr source busyPeriod
attr unit s
vector 4 Factory.receiver itemResponseTime:vector ETV
attr recordingmode vector
attr source itemResponseTime
attr unit s
vector 5 Factory.receiver itemWaitingTime:vector ETV
attr recordingmode vector
attr source itemWaitingTime
attr unit s
vector 6 Factory.receiver defectiveLifetime:vector ETV
attr recordingmode vector
attr source defectiveLifetime
attr unit s
0	2	0.506726010935	0.506726010935
0	6	0.564256705111	0.057530694176
0	18	1.395407192875	0.831150487764
0	22	1.418566650944	0.023159458069
0	30	2.038079038728	0.619512387784
0	46	2.526253454387	0.488174415659
0	54	2.612565117888	0.086311663501
0	66	3.142180735711	0.529615617823
0	74	3.301178566879	0.158997831168
0	86	4.118986609858	0.817808042979
0	114	5.039068852086	0.920082242228
0	134	5.493192071095	0.454123219009
0	138	5.602693079971	0.109501008876
0	142	5.720382733038	0.117689653067
0	162	6.680467191618	0.96008445858
0	178	6.964532891288	0.28406569967
0	182	7.267634162912	0.303101271624
0	186	7.271976628573	0.004342465661
0	210	8.05404535029	0.782068721717
0	218	8.605742485029	0.551697134739
0	238	8.708247140981	0.102504655952
0	250	9.110286393901	0.40203925292
0	262	9.707585574127	0.597299180226
0	274	10.490208833012	0.782623258885
0	290	11.219052765285	0.728843932273
0	314	12.137965029803	0.918912264518
0	326	12.629630156093	0.49166512629
0	330	12.689370421924	0.059740265831
0	350	13.2853802843	0.596009862376
0	362	13.907991258193	0.622610973893
0	370	14.353044919901	0.445053661708
0	386	14.942270031663	0.589225111762
0	402	15.532909842439	0.590639810776
0	426	16.330292648867	0.797382806428
0	442	16.682364420265	0.352071771398
0	454	17.476303142959	0.793938722694
0	458	17.541820278156	0.065517135197
0	474	18.109229740219	0.567409462063
0	482	18.314395833526	0.205166093307
0	490	18.6733392023	0.358943368774
0	502	18.770763598847	0.097424396547
0	522	19.729696443303	0.958932844456
0	538	20.567427168366	0.837730725063
0	554	21.528219085884	0.960791917518
0	562	21.9463644044	0.418145318516
0	574	22.611092754406	0.664728350006
0	582	23.252482312032	0.641389557626
0	602	24.0879668158	0.835484503768
0	614	24.995317999505	0.907351183705
0	618	25.039237831485	0.04391983198
0	626	25.315985810709	0.276747979224
0	650	26.182186203775	0.866200393066
0	662	26.652339258929	0.470153055154
0	670	26.718180594267	0.065841335338
0	678	26.799883205909	0.081702611642
0	710	27.48854205315	0.688658847241
0	714	27.692649119534	0.204107066384
0	734	28.286399373319	0.593750253785
0	750	28.956650316482	0.670250943163
0	770	29.950413954909	0.993763638427
0	798	30.889305268181	0.938891313272
0	802	31.05833617947	0.169030911289
0	810	31.590201362036	0.531865182566
0	826	32.020152091281	0.429950729245
0	834	32.178032019175	0.157879927894
0	842	32.537708840565	0.35967682139
0	846	32.887189828091	0.349480987526
0	858	33.481005804612	0.593815976521
0	862	33.973144575952	0.49213877134
0	870	34.034049582433	0.060905006481
0	874	34.858634905655	0.824585323222
0	878	35.031408620996	0.172773715341
0	886	35.489584686931	0.458176065935
0	890	35.939770785857	0.450186098926
0	910	36.678876694057	0.7391059082
0	914	36.744025866499	0.065149172442
0	930	37.182554434052	0.438528567553
0	942	37.362280658677	0.179726224625
0	970	38.170082081806	0.807801423129
0	974	38.605710892238	0.435628810432
0	982	39.4780264399	0.872315547662
0	986	39.536503527545	0.058477087645
0	990	39.600840726168	0.064337198623
0	998	39.843285849783	0.242445123615
0	1010	40.596457585925	0.753171736142
0	1022	41.565142872976	0.968685287051
0	1038	42.146942468593	0.581799595617
0	1050	43.032746025827	0.885803557234
0	1058	43.102598748403	0.069852722576
0	1082	44.083454949549	0.980856201146
0	1094	44.715087726014	0.631632776465
0	1098	44.783236414427	0.068148688413
0	1122	45.706033540657	0.92279712623
0	1130	46.044276145287	0.33824260463
0	1138	46.505735007115	0.461458861828
0	1146	46.692253629212	0.186518622097
0	1150	46.954751246842	0.26249761763
0	1154	47.181114655687	0.226363408845
0	1162	47.55330527993	0.372190624243
0	1182	48.529519910226	0.976214630296
0	1194	49.114976865705	0.585456955479
0	1206	50.002631986746	0.887655121041
0	1218	50.535198901081	0.532566914335
0	1222	51.097244924167	0.562046023086
0	1234	51.931453900877	0.83420897671
0	1254	52.720858596963	0.789404696086
0	1270	53.656009570229	0.935150973266
0	1290	54.43827335094	0.782263780711
0	1306	55.306899904738	0.868626553798
0	1322	56.235531771089	0.928631866351
0	1334	56.629954336443	0.394422565354
0	1350	57.320941680809	0.690987344366
0	1358	58.231170294806	0.910228613997
0	1362	58.315775433322	0.084605138516
0	1366	58.367133877007	0.051358443685
0	1382	59.006162134697	0.63902825769
0	1390	59.634001180529	0.627839045832
0	1414	60.608268194133	0.974267013604
0	1426	61.335662328172	0.727394134039
0	1434	61.801907289074	0.466244960902
0	1458	62.261236762394	0.45932947332
0	1470	62.506174483568	0.244937721174
0	1482	63.190293051534	0.684118567966
0	1502	63.95924791321	0.768954861676
0	1522	64.901811196933	0.942563283723
0	1534	65.371377844362	0.469566647429
0	1550	65.895426307105	0.524048462743
0	1566	66.866905625443	0.971479318338
0	1574	67.049647133331	0.182741507888
0	1578	67.161342136095	0.111695002764
0	1594	68.117910331812	0.956568195717
0	1614	68.855078507446	0.737168175634
0	1618	68.991333329816	0.13625482237
0	1622	68.998352332971	0.007019003155
0	1642	69.756481026531	0.75812869356
0	1654	70.336524319834	0.580043293303
0	1666	70.81621504831	0.479690728476
0	1694	71.566257896832	0.750042848522
0	1702	71.979289534035	0.413031637203
0	1722	72.845403892453	0.866114358418
0	1746	73.402012441074	0.556608548621
0	1758	73.927547512576	0.525535071502
0	1762	73.942724519875	0.015177007299
0	1774	74.213710405631	0.270985885756
0	1782	74.551122668665	0.337412263034
0	1798	75.116871671286	0.565749002621
0	1830	75.959476977354	0.842605306068
0	1834	75.967817441328	0.008340463974
0	1854	76.925950951176	0.958133509848
0	1870	77.853601838928	0.927650887752
0	1882	78.091033919249	0.237432080321
0	1890	78.431544674328	0.340510755079
0	1918	79.322276263731	0.890731589403
0	1930	79.753332289868	0.431056026137
0	1942	80.375996821561	0.622664531693
0	1946	80.499874044676	0.123877223115
0	1950	80.916336600204	0.416462555528
0	1970	81.857661199291	0.941324599087
0	1982	82.336087146076	0.478425946785
0	1998	83.089935812168	0.753848666092
0	2006	83.508030890953	0.418095078785
0	2026	84.304288808257	0.796257917304
0	2042	84.509271358839	0.204982550582
0	2046	85.001005153638	0.491733794799
0	2062	85.506253233413	0.505248079775
0	2066	85.606629745803	0.10037651239
0	2086	86.500472771471	0.893843025668
0	2114	87.477096670309	0.976623898838
0	2118	87.767600953581	0.290504283272
0	2138	88.698399309769	0.930798356188
0	2150	88.772657311523	0.074258001754
0	2166	89.428122760031	0.655465448508
0	2186	90.329984930113	0.901862170082
0	2198	90.860051685946	0.530066755833
0	2210	91.29481714545	0.434765459504
0	2230	92.144324489871	0.849507344421
0	2242	92.615985112267	0.471660622396
0	2254	93.10353190196	0.487546789693
0	2274	93.958606601462	0.855074699502
0	2286	94.478226577167	0.519619975705
0	2302	95.19098458579	0.712758008623
0	2318	95.852853138933	0.661868553143
0	2322	96.047545805575	0.194692666642
0	2354	96.994381755359	0.946835949784
0	2366	97.726261149162	0.731879393803
0	2374	98.055587793935	0.329326644773
0	2386	98.716872339837	0.661284545902
0	2394	99.543556079503	0.826683739666
0	2406	100.537727572957	0.994171493454
0	2410	100.94509117352	0.407363600563
0	2426	101.563840660501	0.618749486981
0	2438	102.029644539349	0.465803878848
0	2454	102.905904308196	0.876259768847
0	2470	103.266187483912	0.360283175716
0	2486	104.099177758909	0.832990274997
0	2502	104.771985041677	0.672807282768
0	2514	105.302432414611	0.530447372934
0	2518	105.344647494844	0.042215080233
0	2530	106.037925143494	0.69327764865
0	2558	106.935762090609	0.897836947115
0	2570	107.405343659921	0.469581569312
0	2582	108.345011281548	0.939667621627
0	2590	109.078272391343	0.733261109795
0	2598	109.415682713501	0.337410322158
0	2610	109.713440573308	0.297757859807
0	2618	110.318916462361	0.605475889053
0	2634	110.673546801553	0.354630339192
0	2646	111.119888700544	0.446341898991
0	2662	112.104377418988	0.984488718444
0	2666	112.190109843387	0.085732424399
0	2670	112.291230976813	0.101121133426
0	2690	113.094105957307	0.802874980494
0	2706	113.72341355006	0.629307592753
0	2726	114.310349069068	0.586935519008
0	2742	115.209790631894	0.899441562826
0	2754	115.500804135341	0.291013503447
0	2762	115.866443067554	0.365638932213
0	2790	116.82348974142	0.957046673866
0	2798	116.907020272452	0.083530531032
0	2826	117.68077309639	0.773752823938
0	2842	118.676359718664	0.995586622274
0	2850	119.064255360978	0.387895642314
0	2862	119.486115624894	0.421860263916
0	2882	120.298601004759	0.812485379865
0	2886	120.566054103894	0.267453099135
0	2898	121.551463748094	0.9854096442
0	2922	122.534412758423	0.982949010329
0	2934	123.20606249431	0.671649735887
0	2942	123.394042822531	0.187980328221
0	2946	123.571647057076	0.177604234545
0	2954	124.272696505533	0.701049448457
0	2974	125.245590582257	0.972894076724
0	2986	126.22418447677	0.978593894513
0	2994	127.188939374638	0.964754897868
0	3002	127.563960449537	0.375021074899
0	3006	127.779248005943	0.215287556406
0	3018	128.268945304444	0.489697298501
0	3030	128.987796349684	0.71885104524
0	3050	129.930749408435	0.942953058751
0	3058	130.148861531634	0.218112123199
0	3074	131.105689303251	0.956827771617
0	3090	131.871537099127	0.765847795876
0	3102	132.501876261551	0.630339162424
0	3106	132.753985367715	0.252109106164
0	3110	132.825450318399	0.071464950684
0	3134	133.793329120613	0.967878802214
0	3158	134.789968752069	0.996639631456
0	3170	135.189305147389	0.39933639532
0	3174	135.452274548588	0.262969401199
0	3178	135.578159325523	0.125884776935
0	3194	136.273708518129	0.695549192606
0	3206	136.771379430778	0.497670912649
0	3226	137.559274541214	0.787895110436
0	3258	138.532833308913	0.973558767699
0	3270	139.092127584387	0.559294275474
0	3282	139.408982910216	0.316855325829
0	3294	139.848529410781	0.439546500565
0	3302	140.055162279401	0.20663286862
0	3314	140.567285557278	0.512123277877
0	3318	141.094332041685	0.527046484407
0	3330	141.513666453772	0.419334412087
0	3350	142.218926882605	0.705260428833
0	3366	142.816255181563	0.597328298958
0	3370	143.238131841645	0.421876660082
0	3386	144.054421079345	0.8162892377
0	3394	144.309091914678	0.254670835333
0	3414	144.891745067667	0.582653152989
0	3434	145.478027222911	0.586282155244
0	3454	146.274714796106	0.796687573195
0	3466	147.124634811888	0.849920015782
0	3474	147.17111446336	0.046479651472
0	3482	147.342908557738	0.171794094378
0	3490	147.582803264261	0.239894706523
0	3510	148.532343812288	0.949540548027
0	3526	149.386846337469	0.854502525181
0	3538	150.001782793786	0.614936456317
0	3546	150.779812009075	0.778029215289
0	3562	151.521817210132	0.742005201057
0	3570	152.370872358095	0.849055147963
0	3574	152.541160272902	0.170287914807
0	3582	153.536168953871	0.995008680969
0	3602	154.098099788652	0.561930834781
0	3610	154.544781734702	0.44668194605
0	3618	155.088239473291	0.543457738589
0	3634	155.706963047618	0.618723574327
0	3650	156.12330130511	0.416338257492
0	3666	157.112310403958	0.989009098848
0	3670	157.248268885072	0.135958481114
0	3674	157.588969582691	0.340700697619
0	3698	158.461783307604	0.872813724913
0	3714	158.809753321344	0.34797001374
0	3730	159.723256356781	0.913503035437
0	3746	160.70320279058	0.979946433799
0	3754	161.600664549274	0.897461758694
0	3758	161.660792981274	0.060128432
0	3762	162.320787871256	0.659994889982
0	3770	162.694486839696	0.37369896844
0	3782	163.472963327774	0.778476488078
0	3798	164.365095470566	0.892132142792
0	3814	164.917570939986	0.55247546942
0	3818	164.939254044322	0.021683104336
0	3830	165.338007751153	0.398753706831
0	3834	165.585671628359	0.247663877206
0	3850	166.169412964489	0.58374133613
0	3854	166.22304181219	0.053628847701
0	3862	166.454041026299	0.230999214109
0	3874	166.716710665262	0.262669638963
0	3886	167.551685746758	0.834975081496
0	3906	168.431864020181	0.880178273423
0	3910	168.495836085173	0.063972064992
0	3934	169.069823008029	0.573986922856
0	3938	169.315919283077	0.246096275048
0	3954	169.847674370741	0.531755087664
0	3962	170.120339910963	0.272665540222
0	3966	170.168319637186	0.047979726223
0	3982	170.672973175996	0.50465353881
0	3998	171.639240744288	0.966267568292
0	4018	172.407687542957	0.768446798669
0	4046	173.346096786667	0.93840924371
0	4062	174.173831050979	0.827734264312
0	4070	174.712935355488	0.539104304509
0	4078	175.107019894752	0.394084539264
0	4094	176.01310008368	0.906080188928
0	4106	176.565002291924	0.551902208244
0	4118	176.982686088415	0.417683796491
0	4122	177.014840253158	0.032154164743
0	4142	177.853337181028	0.83849692787
0	4170	178.843715052813	0.990377871785
0	4186	179.434919345187	0.591204292374
0	4202	179.944763208967	0.50984386378
0	4210	180.900670487428	0.955907278461
0	4238	181.679710582126	0.779040094698
0	4242	182.150253799971	0.470543217845
0	4250	182.213828904083	0.063575104112
0	4254	182.225363595173	0.01153469109
0	4266	182.748702125851	0.523338530678
0	4282	183.107902330108	0.359200204257
0	4298	183.517262202216	0.409359872108
0	4318	184.401048135938	0.883785933722
0	4346	185.393465937808	0.99241780187
0	4354	185.531347113656	0.137881175848
0	4366	186.328244392522	0.796897278866
0	4378	186.936424345471	0.608179952949
0	4386	187.146521421609	0.210097076138
0	4410	187.970987112721	0.824465691112
0	4414	188.24839393468	0.277406821959
0	4430	189.230499274092	0.982105339412
0	4446	190.188568917796	0.958069643704
0	4458	190.436981343891	0.248412426095
0	4474	190.741071648424	0.304090304533
0	4490	191.504293971922	0.763222323498
0	4498	191.809790549095	0.305496577173
0	4518	192.78864388726	0.978853338165
0	4534	193.564354750321	0.775710863061
0	4546	193.841318560292	0.276963809971
0	4558	194.647135298925	0.805816738633
0	4578	195.615813111414	0.968677812489
0	4590	196.196484409964	0.58067129855
0	4598	196.50123389181	0.304749481846
0	4614	197.199691429495	0.698457537685
0	4622	197.574159822886	0.374468393391
0	4626	197.574303165305	0.000143342419
0	4630	197.655534152168	0.081230986863
0	4638	197.864860761671	0.209326609503
0	4642	198.175158957245	0.310298195574
0	4646	198.354065341402	0.178906384157
0	4666	198.989679127924	0.635613786522
0	4690	199.927632134633	0.937953006709
0	4702	200.690442679908	0.762810545275
0	4714	201.13394572003	0.443503040122
0	4734	201.907769686768	0.773823966738
0	4742	202.28024431457	0.372474627802
0	4774	203.194150524672	0.913906210102
0	4786	203.656700875835	0.462550351163
0	4806	204.526936458881	0.870235583046
0	4826	204.836367845527	0.309431386646
0	4850	205.57094639958	0.734578554053
0	4866	206.492613770525	0.921667370945
0	4870	206.532477208405	0.03986343788
0	4874	206.676972411332	0.144495202927
0	4886	206.904446772524	0.227474361192
0	4890	207.197495131512	0.293048358988
0	4894	207.325852259519	0.128357128007
0	4910	208.248526821603	0.922674562084
0	4914	208.502809138262	0.254282316659
0	4930	209.064912566441	0.562103428179
0	4938	209.362599388222	0.297686821781
0	4946	209.652577870517	0.289978482295
0	4962	209.745459645512	0.092881774995
0	4978	210.468357938799	0.722898293287
0	4990	210.711720528771	0.243362589972
0	5002	211.386096025576	0.674375496805
0	5018	211.720203047377	0.334107021801
0	5026	212.256870536358	0.536667488981
0	5038	212.785330982405	0.528460446047
0	5050	212.981280754312	0.195949771907
0	5074	213.922725112169	0.941444357857
0	5078	214.018972984041	0.096247871872
0	5098	214.740770688039	0.721797703998
0	5102	214.980125551802	0.239354863763
0	5126	215.614051019532	0.63392546773
0	5142	216.242251074865	0.628200055333
0	5182	217.238493793403	0.996242718538
0	5190	217.389339398119	0.150845604716
0	5202	217.846085960503	0.456746562384
0	5214	218.830874204628	0.984788244125
0	5226	219.241947250666	0.411073046038
0	5230	219.41740023018	0.175452979514
0	5238	219.604913001639	0.187512771459
0	5242	219.621747068587	0.016834066948
0	5258	220.155258428996	0.533511360409
0	5266	220.406824507277	0.251566078281
0	5294	221.128037415437	0.72121290816
0	5302	221.75472222617	0.626684810733
0	5310	221.944146076442	0.189423850272
0	5330	222.717092620899	0.772946544457
0	5338	223.041062393683	0.323969772784
0	5350	223.588107906274	0.547045512591
0	5366	224.486223571693	0.898115665419
0	5382	224.862523388342	0.376299816649
0	5390	225.397204403291	0.534681014949
0	5402	225.565582812289	0.168378408998
0	5418	226.452321072333	0.886738260044
0	5434	227.057812850215	0.605491777882
0	5446	227.272153103482	0.214340253267
0	5466	228.193936397079	0.921783293597
0	5478	228.860704205222	0.666767808143
0	5506	229.496818584613	0.636114379391
0	5514	230.169269837429	0.672451252816
0	5526	230.707049443609	0.53777960618
0	5538	231.266748524261	0.559699080652
0	5554	231.946044619651	0.67929609539
0	5562	232.75219428352	0.806149663869
0	5566	232.989170680511	0.236976396991
0	5586	233.893143123937	0.903972443426
0	5606	234.659120979476	0.765977855539
0	5618	235.614768563061	0.955647583585
0	5626	236.141390294525	0.526621731464
0	5642	236.505142722269	0.363752427744
0	5654	237.029624649081	0.524481926812
0	5666	237.4927095496	0.463084900519
0	5674	238.083736224556	0.591026674956
0	5698	238.990424886802	0.906688662246
0	5714	239.241527811149	0.251102924347
0	5718	239.509896027846	0.268368216697
0	5722	239.545124196671	0.035228168825
0	5738	239.746807205016	0.201683008345
0	5742	239.88840533955	0.141598134534
0	5746	240.148331222348	0.259925882798
0	5770	241.131470287908	0.98313906556
0	5786	241.689928525584	0.558458237676
0	5798	242.32494018808	0.635011662496
0	5814	243.13452085386	0.80958066578
0	5818	243.407141457768	0.272620603908
0	5842	244.293755444456	0.886613986688
0	5846	244.335787339592	0.042031895136
0	5854	244.585047757942	0.24926041835
0	5858	244.70025472505	0.115206967108
0	5870	244.897325047515	0.197070322465
0	5874	244.994821660211	0.097496612696
0	5902	245.947511745607	0.952690085396
0	5914	246.64708983059	0.699578084983
0	5922	247.089548022709	0.442458192119
0	5946	247.898335027731	0.808787005022
0	5958	248.256747599914	0.358412572183
0	5962	248.270401435894	0.01365383598
0	5966	248.278148270668	0.007746834774
0	5974	248.474730259031	0.196581988363
0	5986	248.922940365961	0.44821010693
0	6006	249.563731462918	0.640791096957
0	6030	250.458010239284	0.894278776366
0	6042	251.200839089686	0.742828850402
0	6050	251.392826714544	0.191987624858
0	6066	252.078445555633	0.685618841089
0	6070	252.176993717197	0.098548161564
0	6082	253.073259163871	0.896265446674
0	6098	253.788157219989	0.714898056118
0	6102	254.476224161209	0.68806694122
0	6110	254.8209332819	0.344709120691
0	6126	255.76499032624	0.94405704434
0	6142	256.554779690215	0.789789363975
0	6158	256.812526748506	0.257747058291
0	6162	257.142046046434	0.329519297928
0	6174	257.927204739293	0.785158692859
0	6194	258.784778713705	0.857573974412
0	6202	259.135259028049	0.350480314344
0	6218	259.848965716073	0.713706688024
0	6230	260.275228532022	0.426262815949
0	6234	260.756179168578	0.480950636556
0	6242	261.095386391496	0.339207222918
0	6254	261.411797193335	0.316410801839
0	6258	261.442957933051	0.031160739716
0	6262	261.541595188425	0.098637255374
0	6282	262.173106536259	0.631511347834
0	6294	262.614037422919	0.44093088666
0	6298	262.718349638851	0.104312215932
0	6330	263.491295781443	0.772946142592
0	6346	264.252169108242	0.760873326799
0	6358	265.001809119936	0.749640011694
0	6370	265.694157895157	0.692348775221
0	6378	265.79328923136	0.099131336203
0	6394	266.562919216454	0.769629985094
0	6410	267.020713261785	0.457794045331
0	6422	267.832751265485	0.8120380037
0	6454	268.557628329834	0.724877064349
0	6462	268.981458372893	0.423830043059
0	6490	269.879790985249	0.898332612356
0	6498	270.054687853195	0.174896867946
0	6506	270.892502314402	0.837814461207
0	6530	271.359775556475	0.467273242073
0	6542	271.978956671655	0.61918111518
0	6550	272.736908044424	0.757951372769
0	6558	273.630236693649	0.893328649225
0	6562	273.644745715419	0.01450902177
0	6566	273.969393186029	0.32464747061
0	6578	274.923655401906	0.954262215877
0	6598	275.750015447373	0.826360045467
0	6602	276.364312918382	0.614297471009
0	6610	276.758614366167	0.394301447785
0	6618	277.10612066811	0.347506301943
0	6626	277.327077739398	0.220957071288
0	6642	278.281155204159	0.954077464761
0	6658	278.787045245749	0.50589004159
0	6662	278.938838865367	0.151793619618
0	6670	279.101247834034	0.162408968667
0	6682	279.442800865268	0.341553031234
0	6690	279.658646119751	0.215845254483
0	6702	280.492962575044	0.834316455293
0	6710	280.959898364257	0.466935789213
0	6722	281.211314900771	0.251416536514
0	6726	281.2806451742	0.069330273429
0	6734	281.967058129834	0.686412955634
0	6758	282.791746194467	0.824688064633
0	6766	283.315318441477	0.52357224701
0	6770	283.43233519722	0.117016755743
0	6798	284.333970278494	0.901635081274
0	6810	285.026599673547	0.692629395053
0	6826	285.995854471337	0.96925479779
0	6838	286.333137277739	0.337282806402
0	6846	286.654368302079	0.32123102434
0	6858	286.980004923178	0.325636621099
0	6882	287.978363686001	0.998358762823
0	6886	288.006286599899	0.027922913898
0	6902	288.999047981568	0.992761381669
0	6910	289.460353079478	0.46130509791
0	6930	290.085799212794	0.625446133316
0	6934	290.110322920832	0.024523708038
0	6950	291.054357968497	0.944035047665
0	6958	291.412306126433	0.357948157936
0	6962	291.739402970525	0.327096844092
0	6974	291.901966623256	0.162563652731
0	6994	292.836679927764	0.934713304508
0	7002	293.495535721296	0.658855793532
0	7006	293.520223154446	0.02468743315
0	7018	293.775612493504	0.255389339058
0	7034	294.262901304748	0.487288811244
0	7038	294.308760880718	0.04585957597
0	7042	294.409888223505	0.101127342787
0	7058	294.874486895504	0.464598671999
0	7074	295.573719030938	0.699232135434
0	7090	296.187333282775	0.613614251837
0	7110	296.561230765649	0.373897482874
0	7126	297.362797238392	0.801566472743
0	7138	297.78938967408	0.426592435688
0	7158	298.577608474291	0.788218800211
0	7190	299.532961874263	0.955353399972
0	7198	299.975927677465	0.442965803202
0	7218	300.679549620248	0.703621942783
0	7230	301.197210621548	0.5176610013
0	7234	301.427082097384	0.229871475836
0	7258	302.2222302698	0.795148172416
0	7262	302.412710477126	0.190480207326
0	7274	302.97978283604	0.567072358914
0	7290	303.473912320559	0.494129484519
0	7310	304.473811451572	0.999899131013
0	7338	304.888769971433	0.414958519861
0	7346	305.302079399575	0.413309428142
0	7374	306.230514714953	0.928435315378
0	7390	307.215365162112	0.984850447159
0	7402	307.409379333716	0.194014171604
0	7414	308.069488404079	0.660109070363
0	7434	308.820804893498	0.751316489419
0	7446	309.522741497487	0.701936603989
0	7454	309.639030997634	0.116289500147
0	7474	310.326849035911	0.687818038277
0	7478	310.575016095062	0.248167059151
0	7482	310.79856446175	0.223548366688
0	7498	311.411329351823	0.612764890073
0	7502	311.652649787945	0.241320436122
0	7506	311.98478407249	0.332134284545
0	7514	312.905467089956	0.920683017466
0	7530	313.463675379279	0.558208289323
0	7546	314.391232800196	0.927557420917
0	7566	315.342305839752	0.951073039556
0	7582	316.113590840009	0.771285000257
0	7590	316.959821946911	0.846231106902
0	7602	317.802368851138	0.842546904227
0	7610	318.23811738006	0.435748528922
0	7614	318.410115524886	0.171998144826
0	7634	319.142852284705	0.732736759819
0	7642	319.340658724533	0.197806439828
0	7662	320.150926817666	0.810268093133
0	7678	321.08475506398	0.933828246314
0	7686	321.215684613438	0.130929549458
0	7710	321.95624741329	0.740562799852
0	7714	322.196513301918	0.240265888628
0	7734	322.92279086657	0.726277564652
0	7738	323.103360429165	0.180569562595
0	7746	323.512208027291	0.408847598126
0	7762	323.865943350355	0.353735323064
0	7786	324.855918102889	0.989974752534
0	7806	325.604905072824	0.748986969935
0	7814	325.861750234608	0.256845161784
0	7818	326.213391008778	0.35164077417
0	7830	326.810301298034	0.596910289256
0	7838	327.163709077975	0.353407779941
0	7854	328.140089702318	0.976380624343
0	7866	329.016509703119	0.876420000801
0	7886	329.766803313969	0.75029361085
0	7898	330.546237281747	0.779433967778
0	7910	330.802057076003	0.255819794256
0	7922	331.205687243947	0.403630167944
0	7934	331.389152917768	0.183465673821
0	7942	331.597153231957	0.208000314189
0	7950	331.671170967388	0.074017735431
0	7974	332.60527389612	0.934102928732
0	7978	332.688857696708	0.083583800588
0	7998	333.275952332178	0.58709463547
0	8002	333.870591652803	0.594639320625
0	8026	334.360600243546	0.490008590743
0	8038	334.877920709774	0.517320466228
0	8042	334.943937435504	0.06601672573
0	8066	335.518584164083	0.574646728579
0	8070	335.576399870673	0.05781570659
0	8098	336.494646235127	0.918246364454
0	8110	336.972825871073	0.478179635946
0	8114	337.003095757673	0.0302698866
0	8126	337.483845944275	0.480750186602
0	8150	338.077284763326	0.593438819051
0	8170	338.956413110477	0.879128347151
0	8174	339.16500927996	0.208596169483
0	8182	339.411443701704	0.246434421744
0	8194	339.693440216119	0.281996514415
0	8210	340.144541835636	0.451101619517
0	8234	340.846857959163	0.702316123527
0	8254	341.585987856603	0.73912989744
0	8266	341.972113744114	0.386125887511
0	8286	342.75470975902	0.782596014906
0	8298	343.100928385268	0.346218626248
0	8302	343.369410145554	0.268481760286
0	8318	344.033817784387	0.664407638833
0	8330	344.548488236257	0.51467045187
0	8334	344.57455756724	0.026069330983
0	8350	345.323542174642	0.748984607402
0	8382	346.23200553422	0.908463359578
0	8390	346.501889254191	0.269883719971
0	8402	347.0199586437	0.518069389509
0	8418	347.963350223369	0.943391579669
0	8422	347.989711758207	0.026361534838
0	8426	348.397778006961	0.408066248754
0	8438	348.774170640382	0.376392633421
0	8454	349.453220133661	0.679049493279
0	8458	349.563591332166	0.110371198505
0	8482	350.218700072952	0.655108740786
0	8502	350.91048874286	0.691788669908
0	8518	351.175428767214	0.264940024354
0	8522	351.680383220073	0.504954452859
0	8538	352.506412480483	0.82602926041
0	8570	353.357817728296	0.851405247813
0	8586	354.064521871731	0.706704143435
0	8594	354.525430247644	0.460908375913
0	8602	354.971395017337	0.445964769693
0	8606	355.700205241553	0.728810224216
0	8610	355.779379290286	0.079174048733
0	8622	355.867605628669	0.088226338383
0	8630	356.01121660321	0.143610974541
0	8634	356.194690870112	0.183474266902
0	8650	356.756840141481	0.562149271369
0	8662	357.334522250332	0.577682108851
0	8670	357.626752988193	0.292230737861
0	8682	358.172808835506	0.546055847313
0	8694	358.560487271044	0.387678435538
0	8714	359.461094612013	0.900607340969
0	8734	360.035711854454	0.574617242441
0	8742	360.724208698133	0.688496843679
0	8758	361.70549544598	0.981286747847
0	8770	362.31067872582	0.60518327984
0	8786	363.192559721405	0.881880995585
0	8806	364.045820685327	0.853260963922
0	8810	364.130100577362	0.084279892035
0	8814	364.457100567632	0.32699999027
0	8826	365.056013338026	0.598912770394
0	8834	365.268637605235	0.212624267209
0	8850	366.009599565752	0.740961960517
0	8854	366.260783009455	0.251183443703
0	8858	366.349030948701	0.088247939246
0	8874	366.763435504158	0.414404555457
0	8894	367.362782632225	0.599347128067
0	8910	368.010797498506	0.648014866281
0	8918	368.046220371258	0.035422872752
0	8930	368.73365168063	0.687431309372
0	8954	369.684662417732	0.951010737102
0	8958	369.802003353126	0.117340935394
0	8970	370.195020740842	0.393017387716
0	8986	370.936854120567	0.741833379725
0	8990	371.113903115028	0.177048994461
0	9002	371.233067250102	0.119164135074
0	9006	371.367775269774	0.134708019672
0	9022	372.338025778755	0.970250508981
0	9026	372.487674946421	0.149649167666
0	9034	372.846644755676	0.358969809255
0	9054	373.573423911808	0.726779156132
0	9062	373.685333848689	0.111909936881
0	9082	374.090918913009	0.40558506432
0	9106	374.924492559852	0.833573646843
0	9118	375.513487196984	0.588994637132
0	9130	376.021779669207	0.508292472223
0	9154	376.984322684808	0.962543015601
0	9158	377.123669263432	0.139346578624
0	9170	377.626321753245	0.502652489813
0	9182	378.269194435319	0.642872682074
0	9198	378.642671586005	0.373477150686
0	9206	378.846382801179	0.203711215174
0	9222	379.026140749911	0.179757948732
0	9238	379.921335269921	0.89519452001
0	9246	379.979627455576	0.058292185655
0	9258	380.307324492131	0.327697036555
0	9278	381.241543981471	0.93421948934
0	9290	381.404820431015	0.163276449544
0	9294	381.552855268345	0.14803483733
0	9318	382.304857565314	0.752002296969
0	9338	383.016432421972	0.711574856658
0	9350	383.366368360809	0.349935938837
0	9370	384.26450578658	0.898137425771
0	9386	385.139613601371	0.875107814791
0	9402	385.497392953598	0.357779352227
0	9410	385.728963344582	0.231570390984
0	9426	386.067721270016	0.338757925434
0	9450	386.93901123222	0.871289962204
0	9462	387.730136653167	0.791125420947
0	9474	388.510755732647	0.78061907948
0	9482	388.600778529878	0.090022797231
0	9498	389.497087232295	0.896308702417
0	9510	390.460230916731	0.963143684436