version 3
run Pipelined-0-20260108-17:54:00-72783
attr configname Pipelined
attr datetime 20260108-17:54:00
attr datetimef 20260108-175400
attr experiment Pipelined
attr inifile omnetpp.ini
attr iterationvars ""
attr iterationvarsd ""
attr iterationvarsf ""
attr measurement ""
attr network Factory
attr processid 72783
attr repetition 0
attr replication #0
attr resultdir results
attr runnumber 0
attr seedset 125
config **.mode "\"pipelined\""
config cpu-time-limit 200s
config seed-set 125
config **.N 4
config **.p "\"0.78 0.9 0.98 0.1\""
config network Factory

vector 0 Factory.assemblyLine.robot[0] busyPeriod:vector ETV
attr recordingmode vector
attr source busyPeriod
attr unit s
vector 1 Factory.assemblyLine.robot[1] busyPeriod:vector ETV
attr recordingmode vector
attr source busyPeriod
attr unit s
vector 2 Factory.assemblyLine.robot[2] busyPeriod:vector ETV
attr recordingmode vector
attr source busyPeriod
attr unit s
vector 3 Factory.assemblyLine.robot[3] busyPeriod:vector ETV
attr recordingmode vector
attr source busyPeriod
attr unit s
vector 4 Factory.receiver itemResponseTime:vector ETV
attr recordingmode vector
attr source itemResponseTime
attr unit s
vector 5 Factory.receiver itemWaitingTime:vector ETV
attr recordingmode vector
attr source itemWaitingTime
attr unit s
vector 6 Factory.receiver defectiveLifetime:vector ETV
attr recordingmode vector
attr source defectiveLifetime
attr unit s
0	2	0.506726010935	0.506726010935
0	6	0.564256705111	0.057530694176
0	14	1.395407192875	0.831150487764
0	18	1.418566650944	0.023159458069
0	22	1.831392732216	0.412826081272
0	34	2.409401435871	0.578008703655
0	44	2.947662741877	0.538261306006
0	48	3.497923522023	0.550260780146
0	52	3.808690367499	0.310766845476
0	56	4.338472812436	0.529782444937
0	62	4.859604107215	0.521131294779
0	74	5.79273742088	0.933133313665
0	82	6.127669727196	0.334932306316
0	88	6.596228405832	0.468558678636
0	94	6.793319722403	0.197091316571
0	98	6.795649323844	0.002329601441
0	102	6.90515033272	0.109501008876
0	110	7.528255462646	0.623105129926
0	114	8.016193574294	0.487938111648
0	118	8.12104931171	0.104855737416
0	126	8.646465768571	0.525416456861
0	132	8.734353286679	0.087887518108
0	138	9.037454558303	0.303101271624
0	152	9.525554013438	0.488099455135
0	164	10.21078953077	0.685235517332
0	172	10.577919190749	0.367129659979
0	180	11.084712037816	0.506792847067
0	184	11.203949773218	0.119237735402
0	198	12.059792008716	0.855842235498
0	202	12.40636862535	0.346576616634
0	208	12.735649077687	0.329280452337
0	222	13.561581105226	0.825932027539
0	232	14.314112057676	0.75253095245
0	240	14.598040268989	0.283928211313
0	244	15.052251509856	0.454211240867
0	256	15.674862483749	0.622610973893
0	266	16.264087595511	0.589225111762
0	274	16.854727406287	0.590639810776
0	280	17.231673073023	0.376945666736
0	288	17.314774932106	0.083101859083
0	298	18.030275754862	0.715500822756
0	306	18.71197723993	0.681701485068
0	320	19.525697379838	0.813720139908
0	324	19.696791395777	0.171094015939
0	336	20.278691479703	0.581900083926
0	346	21.00851819897	0.729826719267
0	356	21.951885496265	0.943367297295
0	362	22.724298738175	0.77241324191
0	366	23.192918387939	0.468619649764
0	376	24.153710305457	0.960791917518
0	382	24.65213565505	0.498425349593
0	394	25.220996226416	0.568860571366
0	398	25.613025946076	0.39202971966
0	404	25.886171424062	0.273145477986
0	410	26.081734942039	0.195563517977
0	418	26.989086125744	0.907351183705
0	422	27.033005957724	0.04391983198
0	432	27.268455805256	0.235449847532
0	436	27.316191017394	0.047735212138
0	446	27.996637825155	0.680446807761
0	454	28.443385050166	0.446747225011
0	458	28.508862256305	0.065477206139
0	462	28.590564867947	0.081702611642
0	470	28.78394610295	0.193381235003
0	476	28.829069643281	0.045123540331
0	482	29.102127730148	0.273058086867
0	488	29.520027339226	0.417899609078
0	496	29.83638086333	0.316353524104
0	506	30.462597806706	0.626216943376
0	512	30.78620773065	0.323609923944
0	520	31.302844171646	0.516636440996
0	524	31.311817909359	0.008973737713
0	536	32.243441714906	0.931623805547
0	548	33.144010122866	0.90056840796
0	554	33.675875305432	0.531865182566
0	562	34.105826034677	0.429950729245
0	570	34.509808001575	0.403981966898
0	576	34.869484822965	0.35967682139
0	584	35.67683566548	0.807350842515
0	594	36.16897443682	0.49213877134
0	598	36.341748152161	0.172773715341
0	608	36.617534404853	0.275786252692
0	624	37.578156436095	0.960622031242
0	634	37.955299146706	0.377142710611
0	646	38.703666116344	0.748366969638
0	658	39.660008445848	0.956342329504
0	664	39.773803916294	0.113795470446
0	676	40.383668847848	0.609864931554
0	688	41.205001467373	0.821332619525
0	694	41.78680106299	0.581799595617
0	700	42.55942091695	0.77261985396
0	706	43.010918820509	0.451497903559
0	716	43.691712151979	0.68079333147
0	724	44.421087909023	0.729375757044
0	730	45.097595509373	0.67650760035
0	740	45.876772695452	0.779177186079
0	750	46.799569821682	0.92279712623
0	756	46.872416499069	0.072846677387
0	764	47.477703473063	0.605286973994
0	774	47.66422209516	0.186518622097
0	780	48.036412719403	0.372190624243
0	786	48.597587644587	0.561174925184
0	794	48.75887790881	0.161290264223
0	798	49.24019009713	0.48131218832
0	806	49.825647052609	0.585456955479
0	816	50.565448538632	0.739801486023
0	828	51.387180078075	0.821731539443
0	834	51.792702785459	0.405522707384
0	848	52.767434102715	0.974731317256
0	852	52.83897545142	0.071541348705
0	858	53.162105560535	0.323130109115
0	862	53.432110575493	0.270005014958
0	874	54.266516507836	0.834405932343
0	886	54.990116067696	0.72359955986
0	894	55.503971883561	0.513855815865
0	904	56.194959227927	0.690987344366
0	922	57.171545616118	0.976586388191
0	928	57.80552490591	0.633979289792
0	934	58.719943076371	0.914418170461
0	938	59.574846073751	0.85490299738
0	944	59.980531387263	0.405685313512
0	950	60.462846815352	0.482315428089
0	956	61.219031044514	0.756184229162
0	966	61.812488742172	0.593457697658
0	972	61.957359667634	0.144870925462
0	976	62.187578521435	0.230218853801
0	994	63.157169568584	0.969591047149
0	1002	63.833268241723	0.676098673139
0	1008	63.955777703318	0.122509461595
0	1012	64.166955598396	0.211177895078
0	1026	64.889350468292	0.722394869896
0	1032	65.323659644694	0.434309176402
0	1036	65.733339464524	0.40967981983
0	1054	66.690419319784	0.95707985526
0	1062	66.99381373031	0.303394410526
0	1068	67.168131457175	0.174317726865
0	1082	67.840060537447	0.671929080272
0	1096	68.66096560005	0.820905062603
0	1100	68.67383966036	0.01287406031
0	1112	69.552981771062	0.879142110702
0	1126	70.303024619584	0.750042848522
0	1132	70.981708447448	0.678683827864
0	1142	71.835440955124	0.853732507676
0	1148	72.136821821564	0.30138086644
0	1152	72.343134041176	0.206312219612
0	1158	72.504728746832	0.161594705656
0	1166	72.928400153526	0.423671406694
0	1178	73.453935225028	0.525535071502
0	1182	73.716491998406	0.262556773378
0	1192	74.319111219142	0.602619220736
0	1198	74.759762562346	0.440651343204
0	1208	75.337086679414	0.577324117068
0	1214	75.439562957734	0.10247627832
0	1222	76.016130669043	0.576567711309
0	1226	76.024471133017	0.008340463974
0	1234	76.398157839664	0.373686706647
0	1248	77.309673863929	0.911516024265
0	1254	77.54710594425	0.237432080321
0	1258	78.009933102411	0.462827158161
0	1268	78.35044385749	0.340510755079
0	1276	78.917028510245	0.566584652755
0	1280	79.007583916421	0.090555406176
0	1288	79.170914705145	0.163330788724
0	1294	79.390259863344	0.219345158199
0	1308	80.022475373699	0.632215510355
0	1316	80.359580333578	0.337104959879
0	1332	80.996007579845	0.636427246267
0	1342	81.839516428067	0.843508848222
0	1346	81.910906918813	0.071390490746
0	1350	82.078955281759	0.168048362946
0	1364	82.783718315885	0.704763034126
0	1376	83.700727187796	0.917008871911
0	1380	83.728494283511	0.027767095715
0	1384	83.874518443831	0.14602416032
0	1394	84.205235185335	0.330716741504
0	1404	84.943775440334	0.738540254999
0	1416	85.819008058869	0.875232618535
0	1420	86.337689324283	0.518681265414
0	1434	87.060291300761	0.722601976478
0	1444	87.522328530904	0.462037230143
0	1448	87.982839120785	0.460510589881
0	1462	88.92638039426	0.943541273475
0	1470	89.361145853764	0.434765459504
0	1478	89.579875395168	0.218729541404
0	1484	90.119344323175	0.539468928007
0	1490	90.591004945571	0.471660622396
0	1500	91.021458472358	0.430453526787
0	1506	91.352429717779	0.330971245421
0	1514	92.182089938084	0.829660220305
0	1522	92.701709913789	0.519619975705
0	1530	93.523611982586	0.821902068797
0	1536	93.840952571482	0.317340588896
0	1544	94.664153374965	0.823200803483
0	1550	94.858846041607	0.194692666642
0	1556	95.294620112516	0.435774070909
0	1568	95.715691289632	0.421071177116
0	1572	96.585212428589	0.869521138957
0	1582	96.990115004825	0.404902576236
0	1590	97.651399550727	0.661284545902
0	1594	97.688128130511	0.036728579784
0	1602	98.442797164666	0.754669034155
0	1610	99.104044788518	0.661247623852
0	1614	99.151018459584	0.046973671066
0	1626	100.030495378656	0.879476919072
0	1634	100.811448375696	0.78095299704
0	1644	101.171731551412	0.360283175716
0	1650	101.477585110349	0.305853558937
0	1660	102.281019838994	0.803434728645
0	1664	102.485588529149	0.204568690155
0	1668	102.761220320828	0.275631791679
0	1682	103.642808724429	0.881588403601
0	1698	104.641917513685	0.999108789256
0	1706	105.165274051951	0.523356538266
0	1714	105.448067473482	0.282793421531
0	1724	106.07834481192	0.630277338438
0	1738	107.013789372753	0.935444560833
0	1748	107.570835456486	0.557046083733
0	1758	108.017177355477	0.446341898991
0	1770	109.001666073921	0.984488718444
0	1776	109.655227837619	0.653561763698
0	1782	110.16129218461	0.506064346991
0	1788	110.365516921738	0.204224737128
0	1792	110.56204315857	0.196526236832
0	1804	111.304626269731	0.742583111161
0	1808	111.420617088675	0.115990818944
0	1820	112.30417325464	0.883556165965
0	1830	112.640066784806	0.335893530166
0	1838	112.943479573354	0.303412788548
0	1844	113.444090584759	0.500611011405
0	1850	113.704968563514	0.260877978755
0	1854	113.827940729214	0.1229721657
0	1864	114.223262571497	0.395321842283
0	1878	115.178306312766	0.955043741269
0	1884	115.519148942083	0.340842629317
0	1896	116.330035332823	0.81088639074
0	1902	116.364950937917	0.034915605094
0	1916	117.31288349675	0.947932558833
0	1924	118.29829314095	0.9854096442
0	1940	119.281242151279	0.982949010329
0	1950	119.719773628283	0.438531477004
0	1958	120.394319724757	0.674546096474
0	1964	120.80477986671	0.410460141953
0	1978	121.664622086333	0.859842219623
0	1984	121.985613749828	0.320991663495
0	2000	122.897721865913	0.912108116085
0	2010	123.426740454277	0.529018588364
0	2018	124.343082222156	0.916341767879
0	2022	124.650275108637	0.307192886481
0	2028	125.567589211743	0.917314103106
0	2034	126.35739817121	0.789808959467
0	2040	126.972722952719	0.615324781509
0	2044	127.738570748595	0.765847795876
0	2048	128.118891767691	0.380321019096
0	2054	128.439853482879	0.320961715188
0	2062	129.384520371211	0.944666888332
0	2068	129.537923357216	0.153402986005
0	2072	129.545813021482	0.007889664266
0	2078	129.894223395268	0.348410373786
0	2082	130.298706585307	0.404483190039
0	2094	131.115921439834	0.817214854527
0	2098	131.311271933604	0.19535049377
0	2108	131.911504830232	0.600232896628
0	2112	132.037389607167	0.125884776935
0	2122	132.732938799773	0.695549192606
0	2130	133.280361244454	0.547422444681
0	2146	134.195107666076	0.914746421622
0	2158	134.710419247857	0.515311581781
0	2162	134.75296612922	0.042546881363
0	2172	135.297773687634	0.544807558414
0	2182	135.671357532497	0.373583844863
0	2188	136.104333365801	0.432975833304
0	2198	136.725124366581	0.62079100078
0	2208	137.597572845406	0.872448478825
0	2218	138.353000508155	0.755427662749
0	2226	138.74573740526	0.392736897105
0	2236	139.620817572809	0.875080167549
0	2242	139.861886573722	0.241069000913
0	2246	139.992404003627	0.130517429905
0	2256	140.633077543694	0.640673540067
0	2260	140.700711949961	0.067634406267
0	2274	141.575670711463	0.874958761502
0	2282	141.917067590868	0.341396879405
0	2288	142.408890333259	0.491822742391
0	2294	142.542722560232	0.133832226973
0	2304	143.297700872411	0.754978312179
0	2316	143.795725597301	0.49802472489
0	2328	144.745266145328	0.949540548027
0	2338	145.508145771921	0.762879626593
0	2342	146.123082228238	0.614936456317
0	2350	147.071521638427	0.948439410189
0	2358	147.551617343677	0.48009570525
0	2364	148.068354877876	0.516737534199
0	2372	148.405523141147	0.337168263271
0	2378	148.962842293782	0.557319152635
0	2382	149.429086540127	0.466244246345
0	2388	149.500428735278	0.071342195151
0	2394	149.581505241105	0.081076505827
0	2402	150.171173128299	0.589667887194
0	2408	150.578096358571	0.406923230272
0	2426	151.231994057772	0.653897699201
0	2430	151.768718263134	0.536724205362
0	2444	152.644308067159	0.875589804025
0	2452	152.932615178171	0.288307111012
0	2464	153.830242656404	0.897627478233
0	2474	154.743745691841	0.913503035437
0	2480	154.846361764241	0.1026160724
0	2484	155.36318010604	0.516818341799
0	2494	156.25015766616	0.88697756012
0	2500	156.944563179743	0.694405513583
0	2506	157.3797743537	0.435211173957
0	2512	157.563721865881	0.183947512181
0	2522	158.407879923004	0.844158057123
0	2530	158.960355392424	0.55247546942
0	2534	159.020080436254	0.05972504383
0	2546	159.426088469802	0.406008033548
0	2550	159.456700058654	0.030611588852
0	2554	159.556249202462	0.099549143808
0	2566	160.28812911245	0.731879909988
0	2576	160.550798751413	0.262669638963
0	2582	161.385773832909	0.834975081496
0	2590	162.265952106332	0.880178273423
0	2596	162.483800879214	0.217848772882
0	2604	163.066533213249	0.582732334035
0	2614	164.014780569589	0.94824735634
0	2620	164.325923596975	0.311143027386
0	2630	165.122810682981	0.796887086006
0	2644	165.930888892152	0.808078209171
0	2650	166.923546260689	0.992657368537
0	2654	167.579433760373	0.655887499684
0	2658	167.686087848153	0.10665408778
0	2676	168.615248847986	0.929160999833
0	2680	169.179338723887	0.564089875901
0	2684	169.335260191234	0.155921467347
0	2692	169.899850786431	0.564590595197
0	2696	170.061890255427	0.162039468996
0	2706	170.75641740486	0.694527149433
0	2712	171.159743631957	0.403326227097
0	2722	171.617000917671	0.457257285714
0	2732	172.442762973252	0.825762055581
0	2744	173.048644296824	0.605881323572
0	2752	173.552100008353	0.503455711529
0	2764	174.542477880138	0.990377871785
0	2770	175.411663144593	0.869185264455
0	2774	175.451794935855	0.040131791262
0	2782	175.569014831212	0.117219895357
0	2786	176.038506423122	0.46949159191
0	2796	176.787500351666	0.748993928544
0	2808	177.699545379261	0.912045027595
0	2812	177.713821888201	0.01427650894
0	2828	178.667727106482	0.953905218281
0	2836	179.160374033729	0.492646927247
0	2848	179.508705804356	0.348331770627
0	2856	180.415395317598	0.906689513242
0	2864	181.061955326934	0.646560009336
0	2870	181.427414281292	0.365458954358
0	2876	181.557689455802	0.13027517451
0	2888	182.362933398921	0.805243943119
0	2896	183.176003062164	0.813069663243
0	2902	183.189801535567	0.013798473403
0	2908	183.581864815669	0.392063280102
0	2914	183.791961891807	0.210097076138
0	2920	184.1677321773	0.375770285493
0	2928	184.540044331455	0.372312154155
0	2942	185.513215441953	0.973171110498
0	2946	185.556041721485	0.042826279532
0	2964	186.517337443072	0.961295721587
0	2970	186.828837052218	0.311499609146
0	2978	187.592059375716	0.763222323498
0	2988	188.333577850133	0.741518474417
0	2994	189.018894476814	0.685316626681
0	3002	189.648344282292	0.629449805478
0	3018	190.575263096949	0.926918814657
0	3022	191.042170402126	0.466907305177
0	3030	191.187450759809	0.145280357683
0	3038	191.515183103734	0.327732343925
0	3050	192.370776936875	0.855593833141
0	3060	193.344970408126	0.974193471251
0	3072	193.980086693072	0.635116284946
0	3076	194.106024610109	0.125937917037
0	3086	194.416322805683	0.310298195574
0	3090	194.581267727769	0.164944922086
0	3096	195.137767957521	0.556500229752
0	3108	195.886982781577	0.749214824056
0	3116	196.535781478274	0.648798696697
0	3120	196.632109004769	0.096327526495
0	3126	196.927177090428	0.295068085659
0	3134	197.567539978537	0.640362888109
0	3138	197.592466483821	0.024926505284
0	3154	198.523875402982	0.931408919161
0	3164	199.394269875015	0.870394472033
0	3170	200.015389546051	0.621119671036
0	3174	200.289204495956	0.273814949905
0	3180	200.458546102975	0.169341607019
0	3186	200.905068971213	0.446522868238
0	3190	200.925741249226	0.020672278013
0	3198	201.421055315757	0.495314066531
0	3202	201.427479405651	0.006424089894
0	3210	202.003269649573	0.575790243922
0	3224	202.726580332496	0.723310682923
0	3230	203.150951799934	0.424371467438
0	3236	203.401100072309	0.250148272375
0	3244	203.628574433501	0.227474361192
0	3252	203.921622792489	0.293048358988
0	3256	203.958770944967	0.037148152478
0	3266	204.561079937962	0.602308992995
0	3270	204.61425951286	0.053179574898
0	3276	204.829477662218	0.215218149358
0	3290	205.729482971828	0.90000530961
0	3300	206.609596976775	0.880114004947
0	3312	207.604392797684	0.994795820909
0	3318	208.078871023839	0.474478226155
0	3324	208.20830056723	0.129429543391
0	3328	208.338750855762	0.130450288532
0	3336	208.672857877563	0.334107021801
0	3342	209.209525366544	0.536667488981
0	3348	209.961414268471	0.751888901927
0	3362	210.958780226761	0.99736595829
0	3368	211.209250744663	0.250470517902
0	3372	211.287848967591	0.078598222928
0	3380	211.728176116941	0.44032714935
0	3390	212.135400771161	0.40722465422
0	3394	212.189660542642	0.054259771481
0	3398	212.370621128937	0.180960586295
0	3404	212.586179613599	0.215558484662
0	3410	212.618918002348	0.032738388749
0	3420	212.943561183054	0.324643180706
0	3424	213.249274048952	0.305712865898
0	3444	214.24551676749	0.996242718538
0	3450	214.290108748942	0.044591981452
0	3454	214.378025875424	0.087917126482
0	3464	214.834772437808	0.456746562384
0	3470	215.029936942502	0.195164504694
0	3480	215.612954762296	0.583017819794
0	3486	215.800467533755	0.187512771459
0	3500	216.652159474787	0.851691941032
0	3506	216.936687483449	0.284528008662
0	3524	217.90215729037	0.965469806921
0	3534	218.398363331795	0.496206041425
0	3544	219.280039616857	0.881676285062
0	3550	219.579415458018	0.299375841161
0	3560	220.407178986348	0.82776352833
0	3572	221.076114717634	0.668935731286
0	3580	221.614429346282	0.538314628648
0	3586	221.78280775528	0.168378408998
0	3592	221.946921638442	0.164113883162
0	3596	222.075856013452	0.12893437501
0	3602	222.429379869481	0.353523856029
0	3616	223.034871647363	0.605491777882
0	3628	223.917008508225	0.882136860862
0	3640	224.469013277902	0.552004769677
0	3644	224.542312557338	0.073299279436
0	3648	224.60319416434	0.060881607002
0	3660	225.332972880913	0.729778716573
0	3674	226.229377395002	0.896404514089
0	3678	226.289096134942	0.05971873994
0	3690	226.55684850667	0.267752371728
0	3694	226.793824903661	0.236976396991
0	3704	227.46130493888	0.667480035219
0	3708	227.491641598049	0.030336659169
0	3714	227.568225908553	0.076584310504
0	3720	227.659592733014	0.091366824461
0	3732	228.3984435338	0.738850800786
0	3736	228.563910510385	0.165466976585
0	3750	228.927662938129	0.363752427744
0	3764	229.799014962505	0.871352024376
0	3776	230.033681793365	0.23466683086
0	3782	230.547229549608	0.513547756243
0	3792	231.143607542611	0.596377993003
0	3806	231.932487050531	0.78887950792
0	3810	232.074085185065	0.141598134534
0	3816	232.334011067863	0.259925882798
0	3828	233.306121866213	0.97211079835
0	3832	233.658798021491	0.352676155278
0	3842	234.284216519905	0.625418498414
0	3848	234.620547783788	0.336331263883
0	3862	235.020077908406	0.399530124618
0	3880	235.878292978503	0.858215070097
0	3896	236.646721100196	0.768428121693
0	3906	237.318424199469	0.671703099273
0	3912	237.61002900218	0.291604802711
0	3922	238.526879527134	0.916850524954
0	3940	239.335666532156	0.808787005022
0	3958	240.30616157315	0.970495040994
0	3964	240.946952670107	0.640791096957
0	3972	241.21220614807	0.265253477963
0	3984	241.931064579629	0.718858431559
0	3994	242.928684725186	0.997620145557
0	4002	243.120672350044	0.191987624858
0	4008	243.422127939987	0.301455589943
0	4014	244.248206692276	0.826078752289
0	4022	244.512124349124	0.263917656848
0	4028	245.227022405242	0.714898056118
0	4034	245.402380787761	0.175358382519
0	4040	245.793820591171	0.39143980341
0	4054	246.750296756851	0.95647616568
0	4060	247.50476909661	0.754472339759
0	4066	248.301267370342	0.796498273732
0	4070	248.559014428633	0.257747058291
0	4074	248.696313962566	0.137299533933
0	4080	249.115310944377	0.418996981811
0	4090	249.900469637236	0.785158692859
0	4098	250.584360453759	0.683890816523
0	4104	250.758325973752	0.173965519993
0	4108	250.894322142464	0.135996168712
0	4116	251.244016384001	0.349694241537
0	4122	251.587719094933	0.343702710932
0	4134	252.069695569335	0.481976474402
0	4140	252.386106371174	0.316410801839
0	4150	253.11266219429	0.726555823116
0	4162	253.87209293851	0.75943074422
0	4166	253.907053930213	0.034960991703
0	4174	253.981035491213	0.073981561
0	4186	254.68266454711	0.701629055897
0	4194	255.465222473018	0.782557925908
0	4200	255.66852731164	0.203304838622
0	4210	256.123925044196	0.455397732556
0	4222	256.770560237341	0.646635193145
0	4232	257.540190222435	0.769629985094
0	4242	258.045355446399	0.505165223964
0	4252	258.945570335719	0.90021488932
0	4260	259.670447400068	0.724877064349
0	4266	260.025400754991	0.354953354923
0	4274	260.886929526455	0.861528771464
0	4278	261.08469959022	0.197770063765
0	4288	261.861213133898	0.776513543678
0	4296	262.594335957891	0.733122823993
0	4300	262.769232825837	0.174896867946
0	4312	263.762985118194	0.993752292357
0	4318	263.861830381904	0.09884526371
0	4324	264.296165211354	0.43433482945
0	4334	264.915346326534	0.61918111518
0	4344	265.854283832008	0.938937505474
0	4354	266.672019042535	0.817735210527
0	4360	267.260884069134	0.588865026599
0	4370	267.835266945646	0.574382876512
0	4382	268.793221317227	0.957954371581
0	4390	269.514226990049	0.721005672822
0	4394	269.527469963762	0.013242973713
0	4398	269.914812152735	0.387342188973
0	4404	270.327190591949	0.412378439214
0	4408	270.650114277606	0.322923685657
0	4418	271.15882684709	0.508712569484
0	4430	271.909625602415	0.750798755325
0	4436	272.338011540001	0.428385937586
0	4444	272.678343954257	0.340332414256
0	4456	273.614700352534	0.936356398277
0	4470	274.247991643607	0.633291291073
0	4476	274.370452092256	0.122460448649
0	4484	275.097339508816	0.72688741656
0	4492	275.99897459009	0.901635081274
0	4502	276.795008601847	0.796034011757
0	4510	277.483834059902	0.688825458055
0	4514	277.950522169231	0.466688109329
0	4518	278.292933022829	0.342410853598
0	4530	279.262808581807	0.969875558978
0	4534	279.498989715467	0.23618113366
0	4542	279.701864122174	0.202874406707
0	4546	280.188005907222	0.486141785048
0	4550	280.339804226759	0.151798319537
0	4564	281.265737507253	0.925933280494
0	4576	282.241846309968	0.976108802715
0	4590	282.867292443284	0.625446133316
0	4600	283.59783538081	0.730542937526
0	4606	283.955783538746	0.357948157936
0	4612	284.250485491699	0.294701952953
0	4620	284.631934017867	0.381448526168
0	4626	285.00871346052	0.376779442653
0	4636	285.705719378769	0.697005918249
0	4642	285.979474425774	0.273755047005
0	4650	286.318599865299	0.339125439525
0	4654	286.338627891142	0.020028025843
0	4660	286.574670404654	0.236042513512
0	4664	286.619218349915	0.044547945261
0	4674	287.262567970661	0.643349620746
0	4684	288.039971719721	0.77740374906
0	4694	288.881248344892	0.841276625171
0	4702	289.160213937742	0.27896559285
0	4714	289.626764002015	0.466550064273
0	4724	290.11407454637	0.487310544355
0	4734	290.563970079172	0.449895532802
0	4742	291.128526977488	0.564556898316
0	4754	291.90549559611	0.776968618622
0	4762	292.558988925527	0.653493329417
0	4776	293.225302637081	0.666313711554
0	4782	293.385698475401	0.16039583832
0	4802	294.296219706294	0.910521230893
0	4812	294.863292065208	0.567072358914
0	4818	295.050355947103	0.187063881895
0	4828	295.877896909827	0.827540962724
0	4834	295.93441958422	0.056522674393
0	4848	296.349378104081	0.414958519861
0	4858	297.213129674542	0.863751570461
0	4864	298.133812246603	0.920682572061
0	4872	298.475224627406	0.341412380803
0	4878	298.893480724414	0.418256097008
0	4890	299.615584661012	0.722103936598
0	4896	300.321741959305	0.706157298293
0	4906	300.891732230076	0.569990270771
0	4918	301.878567958475	0.986835728399
0	4926	302.298778786781	0.420210828306
0	4932	302.437172136494	0.138393349713
0	4940	302.959580881978	0.522408745484
0	4948	303.207747941129	0.248167059151
0	4952	303.677711139657	0.469963198528
0	4956	303.713592350707	0.03588121105
0	4962	304.153946086057	0.44035373535
0	4966	304.284361877237	0.13041579118
0	4974	305.011144442475	0.726782565238
0	4980	305.537523436118	0.526378993643
0	4992	305.969142647917	0.431619211799
0	4998	306.354095749548	0.384953101631
0	5008	307.077526371219	0.723430621671
0	5020	308.010811306295	0.933284935076
0	5030	308.4533970619	0.442585755605
0	5036	308.855189038898	0.401791976998
0	5046	309.587925798717	0.732736759819
0	5054	309.886789547271	0.298863748554
0	5068	310.400485707206	0.513696159935
0	5072	310.510504716068	0.110019008862
0	5078	310.76011489587	0.249610179802
0	5082	310.891044445328	0.130929549458
0	5086	310.987749207524	0.096704762196
0	5098	311.728312007376	0.740562799852
0	5104	312.386553831157	0.658241823781
0	5108	312.647067654636	0.260513823479
0	5120	313.31170956254	0.664641907904
0	5130	313.684080445198	0.372370882658
0	5136	313.771754652019	0.087674206821
0	5158	314.766431879242	0.994677227223
0	5162	314.984787207087	0.218355327845
0	5172	315.386330433646	0.401543226559
0	5180	315.91508116968	0.528750736034
0	5188	316.568685960714	0.653604791034
0	5196	317.3513464427	0.782660481986
0	5204	317.829345230237	0.477998787537
0	5212	318.061600213163	0.232254982926
0	5220	318.622904227805	0.561304014642
0	5234	319.585190995588	0.962286767783
0	5246	320.409992871565	0.824801875977
0	5258	320.958005164742	0.548012293177
0	5262	321.1873917228	0.229386558058
0	5280	322.105067892691	0.917676169891
0	5290	322.933038071722	0.827970179031
0	5294	322.969253662734	0.036215591012
0	5304	323.696242192986	0.726988530252
0	5312	324.491201138583	0.794958945597
0	5322	325.288565065472	0.797363926889
0	5332	325.86011259909	0.571547533618
0	5336	325.890034384087	0.029921784997
0	5344	326.635824695921	0.745790311834
0	5352	327.178933612762	0.543108916841
0	5364	328.08220217935	0.903268566588
0	5372	328.659573451608	0.577371272258
0	5380	329.352005105458	0.69243165385
0	5390	330.002635026343	0.650629920885
0	5400	330.787279159522	0.784644133179
0	5410	331.568503873881	0.781224714359
0	5422	332.304881037206	0.736377163325
0	5428	332.524871866677	0.219990829471
0	5432	332.856726703227	0.33185483655
0	5446	333.526865273241	0.670138570014
0	5454	333.835720502066	0.308855228825
0	5464	334.644211726955	0.808491224889
0	5468	334.646425053936	0.002213326981
0	5476	335.117101769655	0.470676715719
0	5486	335.658804650878	0.541702881223
0	5496	336.324554981891	0.665750331013
0	5508	337.254069374869	0.929514392978
0	5518	337.805288080121	0.551218705252
0	5522	337.980080888136	0.174792808015
0	5530	338.312196440058	0.332115551922
0	5540	339.284803269891	0.972606829833
0	5552	340.24726377916	0.962460509269
0	5564	340.997379459668	0.750115680508
0	5570	341.38965372601	0.392274266342
0	5582	342.124925103965	0.735271377955
0	5586	342.280849749916	0.155924645951
0	5590	342.464143406595	0.183293656679
0	5596	342.740572423902	0.276429017307
0	5600	342.830521962135	0.089949538233
0	5610	343.241247287714	0.410725325579
0	5614	343.49037388572	0.249126598006
0	5626	344.189201906319	0.698828020599
0	5632	344.648028660561	0.458826754242
0	5642	345.451122668567	0.803094008006
0	5648	345.61572119826	0.164598529693
0	5652	346.015889860452	0.400168662192
0	5658	346.185255778483	0.169365918031
0	5668	346.878057707096	0.692801928613
0	5676	347.70396928186	0.825911574764
0	5688	348.351654184744	0.647684902884
0	5694	348.499786650291	0.148132465547
0	5706	349.432051238133	0.932264587842
0	5718	350.085302605754	0.653251367621
0	5728	350.377533343615	0.292230737861
0	5734	350.448434126325	0.07090078271
0	5738	350.618687448785	0.17025332246
0	5752	351.580392633559	0.961705184774
0	5762	351.83859385433	0.258201220771
0	5772	352.473836986342	0.635243132012
0	5776	352.549873319448	0.076036333106
0	5782	353.270629023195	0.720755703747
0	5786	353.299065125634	0.028436102439
0	5798	353.91730668302	0.618241557386
0	5802	353.93756356695	0.02025688393
0	5812	354.574923058499	0.637359491549
0	5816	354.659202950534	0.084279892035
0	5830	355.527815405272	0.868612454738
0	5834	355.870263769051	0.342448363779
0	5848	356.611225729568	0.740961960517
0	5862	357.025630285025	0.414404555457
0	5866	357.130818257334	0.105187972309
0	5878	357.96033096988	0.829512712546
0	5892	358.928202880772	0.967871910892
0	5900	359.345170141889	0.416967261117
0	5908	359.803913615171	0.458743473282
0	5914	359.921254550565	0.117340935394
0	5924	360.444740206461	0.523485655896
0	5932	361.162001002572	0.717260796111
0	5938	361.281165137646	0.119164135074
0	5944	361.716872219687	0.435707082041
0	5948	361.983825569732	0.266953350045
0	5954	362.204876498312	0.22105092858
0	5970	362.865609372027	0.660732873715
0	5974	363.211133956203	0.345524584176
0	5984	363.745374769896	0.534240813693
0	5988	364.150959834216	0.40558506432
0	5996	364.669505221529	0.518545387313
0	6008	365.503078868372	0.833573646843
0	6014	365.977680033764	0.474601165392
0	6020	366.566674670896	0.588994637132
0	6024	367.094185300397	0.527510629501
0	6030	367.60247777262	0.508292472223
0	6046	368.565020788221	0.962543015601
0	6050	368.704367366845	0.139346578624
0	6058	369.390092247159	0.685724880314
0	6064	370.032964929233	0.642872682074
0	6070	370.725725137855	0.692760208622
0	6076	370.914139861933	0.188414724078
0	6084	371.117851077107	0.203711215174
0	6092	371.237133275711	0.119282198604
0	6100	371.744195214699	0.507061938988
0	6108	372.009126786602	0.264931571903
0	6118	372.682398792816	0.673272006214
0	6124	372.826199121534	0.143800328718
0	6128	373.185633884271	0.359434762737